        53  EXT
         1         1  FAD       P1             17.8670000000      -11.4260000000       -5.6630000000  HETA      601            19.2000000000
         2         1  FAD       O1             19.0010000000      -11.2470000000       -4.7310000000  HETA      601            20.2500000000
         3         1  FAD       O2             18.0530000000      -11.0780000000       -6.9610000000  HETA      601            19.5900000000
         4         1  FAD       O3             17.7930000000      -12.8800000000       -5.6240000000  HETA      601            23.2900000000
         5         1  FAD       C1             16.8240000000      -13.6580000000       -6.3370000000  HETA      601            23.9900000000
         6         1  FAD       C2             17.2170000000      -15.1420000000       -6.0860000000  HETA      601            26.7600000000
         7         1  FAD       O4             16.2130000000      -15.9230000000       -6.8750000000  HETA      601            25.9800000000
         8         1  FAD       C3             18.5960000000      -15.5620000000       -6.6750000000  HETA      601            27.3400000000
         9         1  FAD       O5             19.1250000000      -16.7050000000       -6.0740000000  HETA      601            28.9700000000
        10         1  FAD       C4             18.2150000000      -15.6600000000       -8.1690000000  HETA      601            27.6400000000
        11         1  FAD       O6             19.1840000000      -16.3160000000       -8.9580000000  HETA      601            29.5700000000
        12         1  FAD       C5             16.8860000000      -16.3920000000       -8.0980000000  HETA      601            27.1900000000
        13         1  FAD       N1             15.9210000000      -16.1020000000       -9.1790000000  HETA      601            26.3700000000
        14         1  FAD       C6             15.8200000000      -14.9470000000       -9.9330000000  HETA      601            26.7700000000
        15         1  FAD       N2             14.8570000000      -15.0020000000      -10.8520000000  HETA      601            26.3500000000
        16         1  FAD       C7             14.2960000000      -16.2490000000      -10.7020000000  HETA      601            26.2200000000
        17         1  FAD       C8             13.1760000000      -16.9500000000      -11.4240000000  HETA      601            26.5600000000
        18         1  FAD       N3             12.4900000000      -16.4320000000      -12.4190000000  HETA      601            25.7400000000
        19         1  FAD       N4             12.8970000000      -18.2370000000      -10.9630000000  HETA      601            26.2700000000
        20         1  FAD       C9             13.6000000000      -18.8180000000       -9.9200000000  HETA      601            26.3700000000
        21         1  FAD       N5             14.6280000000      -18.2630000000       -9.2140000000  HETA      601            26.0400000000
        22         1  FAD       C10            14.9440000000      -16.9750000000       -9.6400000000  HETA      601            26.3400000000
        23         1  FAD       N6             16.2530000000       -7.3600000000        4.3090000000  HETA      601            18.7500000000
        24         1  FAD       C11            15.5810000000       -7.4140000000        5.4660000000  HETA      601            20.1600000000
        25         1  FAD       O7             15.1120000000       -8.4400000000        5.8980000000  HETA      601            20.1100000000
        26         1  FAD       N7             15.3190000000       -6.2260000000        6.2280000000  HETA      601            19.3100000000
        27         1  FAD       C12            15.8190000000       -4.9710000000        5.8470000000  HETA      601            19.9900000000
        28         1  FAD       O8             15.5630000000       -3.9930000000        6.5200000000  HETA      601            22.2100000000
        29         1  FAD       C13            16.6320000000       -4.9120000000        4.6420000000  HETA      601            19.1200000000
        30         1  FAD       N8             17.1500000000       -3.7070000000        4.2250000000  HETA      601            19.3700000000
        31         1  FAD       C14            17.8230000000       -3.6650000000        3.0230000000  HETA      601            19.2300000000
        32         1  FAD       C15            18.3440000000       -2.3970000000        2.5920000000  HETA      601            19.0900000000
        33         1  FAD       C16            19.0180000000       -2.2650000000        1.3740000000  HETA      601            18.3600000000
        34         1  FAD       C17            19.5450000000       -0.9150000000        0.9550000000  HETA      601            18.7800000000
        35         1  FAD       C18            19.2060000000       -3.4380000000        0.5030000000  HETA      601            18.8400000000
        36         1  FAD       C19            19.9140000000       -3.3600000000       -0.8300000000  HETA      601            17.9900000000
        37         1  FAD       C20            18.7020000000       -4.7010000000        0.9180000000  HETA      601            19.0500000000
        38         1  FAD       C21            18.0130000000       -4.8330000000        2.1690000000  HETA      601            18.6400000000
        39         1  FAD       N9             17.4460000000       -6.1120000000        2.6730000000  HETA      601            18.7800000000
        40         1  FAD       C22            16.7810000000       -6.1670000000        3.8560000000  HETA      601            19.0600000000
        41         1  FAD       C23            17.6120000000       -7.3380000000        1.8360000000  HETA      601            17.2500000000
        42         1  FAD       C24            16.5220000000       -7.3920000000        0.7140000000  HETA      601            17.1400000000
        43         1  FAD       O9             15.2200000000       -7.4360000000        1.3390000000  HETA      601            15.1200000000
        44         1  FAD       C25            16.7880000000       -8.6410000000       -0.1460000000  HETA      601            17.5100000000
        45         1  FAD       O10            18.1000000000       -8.4950000000       -0.7110000000  HETA      601            16.8600000000
        46         1  FAD       C26            15.7780000000       -8.7330000000       -1.3050000000  HETA      601            17.3200000000
        47         1  FAD       O11            14.4520000000       -8.8780000000       -0.7950000000  HETA      601            16.2300000000
        48         1  FAD       C27            16.1230000000       -9.9240000000       -2.1490000000  HETA      601            18.2100000000
        49         1  FAD       O12            15.1400000000       -9.9300000000       -3.3570000000  HETA      601            17.3200000000
        50         1  FAD       P2             15.7060000000       -9.8220000000       -4.7830000000  HETA      601            19.0700000000
        51         1  FAD       O13            14.5400000000       -9.8130000000       -5.7570000000  HETA      601            16.8400000000
        52         1  FAD       O14            16.6750000000       -8.8190000000       -4.8990000000  HETA      601            17.9800000000
        53         1  FAD       O15            16.4480000000      -11.0160000000       -5.0440000000  HETA      601            19.4200000000
