        18  EXT
         1         1  LIG       C1             19.0010000000       -5.9590000000        7.2880000000  HETC      1               0.0000000000
         2         1  LIG       C2             19.1490000000       -7.0920000000        6.5490000000  HETC      1               0.0000000000
         3         1  LIG       O1             18.6360000000       -8.2700000000        6.9140000000  HETC      1               0.0000000000
         4         1  LIG       C3             19.9070000000       -7.1420000000        5.2660000000  HETC      1               0.0000000000
         5         1  LIG       O2             19.9950000000       -8.2270000000        4.7010000000  HETC      1               0.0000000000
         6         1  LIG       C4             20.4950000000       -5.8890000000        4.7570000000  HETC      1               0.0000000000
         7         1  LIG       C5             21.2080000000       -5.8820000000        3.5520000000  HETC      1               0.0000000000
         8         1  LIG       C6             21.7600000000       -4.6900000000        3.0820000000  HETC      1               0.0000000000
         9         1  LIG       C7             21.6010000000       -3.5090000000        3.8160000000  HETC      1               0.0000000000
        10         1  LIG       C8             20.8910000000       -3.5150000000        5.0200000000  HETC      1               0.0000000000
        11         1  LIG       C9             20.3340000000       -4.7030000000        5.4970000000  HETC      1               0.0000000000
        12         1  LIG       C10            19.5730000000       -4.6910000000        6.7940000000  HETC      1               0.0000000000
        13         1  LIG       O3             19.4510000000       -3.6480000000        7.4210000000  HETC      1               0.0000000000
        14         1  LIG       C11            18.1900000000       -5.9370000000        8.5590000000  HETC      1               0.0000000000
        15         1  LIG       C12            20.1870000000       -5.3240000000       11.8870000000  HETC      1               0.0000000000
        16         1  LIG       C13            19.2380000000       -5.0850000000       10.7380000000  HETC      1               0.0000000000
        17         1  LIG       C14            18.5190000000       -3.7620000000       10.7760000000  HETC      1               0.0000000000
        18         1  LIG       C15            19.0880000000       -6.0100000000        9.7740000000  HETC      1               0.0000000000
