        53  EXT
         1         1  FAD       P1            -38.1630000000      -27.7040000000      -20.5420000000  HETB      602            28.3400000000
         2         1  FAD       O1            -36.7190000000      -28.0790000000      -20.5300000000  HETB      602            28.6300000000
         3         1  FAD       O2            -38.8680000000      -27.8840000000      -19.3950000000  HETB      602            28.5700000000
         4         1  FAD       O3            -37.9910000000      -26.2370000000      -20.7130000000  HETB      602            30.3800000000
         5         1  FAD       C1            -39.0930000000      -25.3000000000      -20.8370000000  HETB      602            32.1200000000
         6         1  FAD       C2            -38.5510000000      -23.9040000000      -20.4320000000  HETB      602            33.0300000000
         7         1  FAD       O4            -39.7290000000      -23.0020000000      -20.5590000000  HETB      602            32.6700000000
         8         1  FAD       C3            -38.0890000000      -23.7840000000      -18.9440000000  HETB      602            33.5400000000
         9         1  FAD       O5            -37.0810000000      -22.8340000000      -18.7500000000  HETB      602            34.8400000000
        10         1  FAD       C4            -39.4440000000      -23.5170000000      -18.2370000000  HETB      602            33.7300000000
        11         1  FAD       O6            -39.2970000000      -22.9690000000      -16.9390000000  HETB      602            34.6800000000
        12         1  FAD       C5            -40.1350000000      -22.5780000000      -19.2080000000  HETB      602            33.7200000000
        13         1  FAD       N1            -41.6130000000      -22.6450000000      -19.2380000000  HETB      602            32.8400000000
        14         1  FAD       C6            -42.4140000000      -23.7420000000      -18.9420000000  HETB      602            33.4300000000
        15         1  FAD       N2            -43.7210000000      -23.4890000000      -19.0430000000  HETB      602            32.9100000000
        16         1  FAD       C7            -43.7940000000      -22.1620000000      -19.4230000000  HETB      602            32.9300000000
        17         1  FAD       C8            -44.9630000000      -21.2520000000      -19.6990000000  HETB      602            32.7500000000
        18         1  FAD       N3            -46.2250000000      -21.6190000000      -19.6120000000  HETB      602            32.7300000000
        19         1  FAD       N4            -44.6200000000      -19.9480000000      -20.0670000000  HETB      602            32.8300000000
        20         1  FAD       C9            -43.2940000000      -19.5280000000      -20.1670000000  HETB      602            33.2700000000
        21         1  FAD       N5            -42.1730000000      -20.2760000000      -19.9310000000  HETB      602            32.6400000000
        22         1  FAD       C10           -42.4690000000      -21.5920000000      -19.5590000000  HETB      602            33.0900000000
        23         1  FAD       N6            -32.5530000000      -32.1800000000      -28.4930000000  HETB      602            29.1500000000
        24         1  FAD       C11           -32.1710000000      -32.0690000000      -29.7700000000  HETB      602            29.6700000000
        25         1  FAD       O7            -32.0250000000      -30.9990000000      -30.3040000000  HETB      602            30.3000000000
        26         1  FAD       N7            -32.0100000000      -33.2260000000      -30.6090000000  HETB      602            28.9500000000
        27         1  FAD       C12           -32.1210000000      -34.5270000000      -30.1060000000  HETB      602            28.8500000000
        28         1  FAD       O8            -31.9870000000      -35.4640000000      -30.8600000000  HETB      602            27.9600000000
        29         1  FAD       C13           -32.3950000000      -34.6690000000      -28.6700000000  HETB      602            28.6900000000
        30         1  FAD       N8            -32.5030000000      -35.9210000000      -28.1030000000  HETB      602            28.8500000000
        31         1  FAD       C14           -32.9110000000      -36.0080000000      -26.7720000000  HETB      602            29.0900000000
        32         1  FAD       C15           -33.0380000000      -37.3230000000      -26.1830000000  HETB      602            29.3700000000
        33         1  FAD       C16           -33.4630000000      -37.4910000000      -24.8560000000  HETB      602            29.3200000000
        34         1  FAD       C17           -33.5800000000      -38.8860000000      -24.2770000000  HETB      602            28.8700000000
        35         1  FAD       C18           -33.7980000000      -36.3070000000      -24.0370000000  HETB      602            29.0200000000
        36         1  FAD       C19           -34.2750000000      -36.4060000000      -22.6060000000  HETB      602            29.2800000000
        37         1  FAD       C20           -33.6760000000      -35.0150000000      -24.6030000000  HETB      602            28.8300000000
        38         1  FAD       C21           -33.2350000000      -34.8430000000      -25.9530000000  HETB      602            28.7600000000
        39         1  FAD       N9            -33.0890000000      -33.5260000000      -26.6090000000  HETB      602            28.7500000000
        40         1  FAD       C22           -32.6840000000      -33.4210000000      -27.9060000000  HETB      602            29.1200000000
        41         1  FAD       C23           -33.4060000000      -32.3010000000      -25.8160000000  HETB      602            27.3300000000
        42         1  FAD       C24           -34.9500000000      -32.0510000000      -25.8200000000  HETB      602            27.2900000000
        43         1  FAD       O9            -35.3810000000      -31.8750000000      -27.1820000000  HETB      602            25.6100000000
        44         1  FAD       C25           -35.2470000000      -30.8050000000      -24.9570000000  HETB      602            26.8300000000
        45         1  FAD       O10           -34.7790000000      -31.0840000000      -23.6160000000  HETB      602            27.0800000000
        46         1  FAD       C26           -36.7790000000      -30.5490000000      -24.9170000000  HETB      602            27.4500000000
        47         1  FAD       O11           -37.2770000000      -30.2670000000      -26.2450000000  HETB      602            25.6600000000
        48         1  FAD       C27           -37.0730000000      -29.3720000000      -24.0230000000  HETB      602            26.6300000000
        49         1  FAD       O12           -38.6260000000      -29.2460000000      -23.9810000000  HETB      602            26.3800000000
        50         1  FAD       P2            -39.3340000000      -29.3080000000      -22.6350000000  HETB      602            26.8900000000
        51         1  FAD       O13           -40.8320000000      -29.2230000000      -22.8880000000  HETB      602            24.8800000000
        52         1  FAD       O14           -38.8530000000      -30.3630000000      -21.8530000000  HETB      602            26.4200000000
        53         1  FAD       O15           -38.9770000000      -28.1230000000      -21.8870000000  HETB      602            27.2000000000
