* SET NIONTYPES = 1
* SET NPOSTOT = 248
* SET NNEGTOT = 256
* SET NIONTOT = 504
*  DATE:     9/16/26     21: 6:37      CREATED BY USER: charmm-gui
*
       504  EXT
         1         1  POT       POT           -29.1617364491       35.0340684112       13.2559365399  IONS      1               1.0000000000
         2         2  POT       POT             5.6261091503        9.4211055886       51.1985408284  IONS      2               1.0000000000
         3         3  POT       POT           -28.7117154619      -46.9853800889      -34.0147904136  IONS      3               1.0000000000
         4         4  POT       POT           -59.7802630914      -45.0005381350      -27.3780194984  IONS      4               1.0000000000
         5         5  POT       POT            27.7026806414      -32.2555630902      -20.4238113341  IONS      5               1.0000000000
         6         6  POT       POT           -47.4117642142      -46.1281643847      -68.0781123243  IONS      6               1.0000000000
         7         7  POT       POT           -49.7202380010       51.5980106000       14.7951152986  IONS      7               1.0000000000
         8         8  POT       POT           -67.4446273759      -33.7272205589      -48.9587077823  IONS      8               1.0000000000
         9         9  POT       POT           -14.4649844280       38.0192889275      -34.6179460680  IONS      9               1.0000000000
        10        10  POT       POT            45.6781022628      -33.2677811728       62.1368465946  IONS      10              1.0000000000
        11        11  POT       POT            11.0767313631       26.9027002690      -15.0056822743  IONS      11              1.0000000000
        12        12  POT       POT            -5.0126046581      -34.0610832847      -17.0548901372  IONS      12              1.0000000000
        13        13  POT       POT            -3.5202328308       45.9491704659       36.9693243214  IONS      13              1.0000000000
        14        14  POT       POT            67.4859885181       67.4518472012       26.5385774006  IONS      14              1.0000000000
        15        15  POT       POT            47.1907598203        9.0473581612       43.6920545068  IONS      15              1.0000000000
        16        16  POT       POT           -31.3888795188      -29.8493779814       -1.1885428087  IONS      16              1.0000000000
        17        17  POT       POT            -0.6099678376       -2.1479465336      -60.0072963704  IONS      17              1.0000000000
        18        18  POT       POT           -55.6558415162       19.6875753478      -43.3369195844  IONS      18              1.0000000000
        19        19  POT       POT            31.8533235000       34.1607638000      -13.9324264000  IONS      19              1.0000000000
        20        20  POT       POT           -53.4029620859      -13.0164141149       26.1985754425  IONS      20              1.0000000000
        21        21  POT       POT           -39.6871833994      -68.4895506008       38.7893861005  IONS      21              1.0000000000
        22        22  POT       POT           -48.7390272000       69.5106742000      -41.5372889000  IONS      22              1.0000000000
        23        23  POT       POT           -69.7892185537       22.3145068011      -32.2437308136  IONS      23              1.0000000000
        24        24  POT       POT           -12.6932638188      -14.5573781034      -24.5819084954  IONS      24              1.0000000000
        25        25  POT       POT            32.5939169012      -28.7387866115      -30.8631444922  IONS      25              1.0000000000
        26        26  POT       POT            70.2367313498       -3.8110926791       66.9577007708  IONS      26              1.0000000000
        27        27  POT       POT            35.7340221899      -30.3376353808      -51.8216539416  IONS      27              1.0000000000
        28        28  POT       POT            64.3205142593       37.6454744004       20.6495048559  IONS      28              1.0000000000
        29        29  POT       POT            41.0952249368      -48.1493331316       38.2669263134  IONS      29              1.0000000000
        30        30  POT       POT            12.2506994045      -69.1671639114      -52.6539201726  IONS      30              1.0000000000
        31        31  POT       POT           -16.7008117785        3.8333205506       52.3197870039  IONS      31              1.0000000000
        32        32  POT       POT           -30.6045661708       -9.0658062618      -37.9035548067  IONS      32              1.0000000000
        33        33  POT       POT            48.3538505467      -60.9668059635       11.8973217892  IONS      33              1.0000000000
        34        34  POT       POT            15.3731978176      -51.9686999466       57.0207221364  IONS      34              1.0000000000
        35        35  POT       POT           -34.3492098286      -34.7159769921       24.4060891187  IONS      35              1.0000000000
        36        36  POT       POT            58.9605370889      -54.5979900019       12.5576686017  IONS      36              1.0000000000
        37        37  POT       POT            -0.6752334210       57.8207611833       20.2923125531  IONS      37              1.0000000000
        38        38  POT       POT             4.8805669720       47.4527152345      -27.3607142029  IONS      38              1.0000000000
        39        39  POT       POT            14.9058815567      -36.1167279751      -11.1793687659  IONS      39              1.0000000000
        40        40  POT       POT            56.2843043044       33.8377009270      -24.7091663902  IONS      40              1.0000000000
        41        41  POT       POT           -30.1421036672       46.8898805111      -42.0750175416  IONS      41              1.0000000000
        42        42  POT       POT           -19.8023686975      -48.0821580997       65.6994709659  IONS      42              1.0000000000
        43        43  POT       POT           -26.8406902031        5.3491443693      -38.1286698219  IONS      43              1.0000000000
        44        44  POT       POT           -64.7762702249       51.4531522398       62.3023188174  IONS      44              1.0000000000
        45        45  POT       POT           -20.2326990092      -55.2351211376       49.8767524978  IONS      45              1.0000000000
        46        46  POT       POT            26.7989101445       70.8189198313       58.3116328967  IONS      46              1.0000000000
        47        47  POT       POT           -18.9712098669       51.5241949146      -22.6916001148  IONS      47              1.0000000000
        48        48  POT       POT             5.8835902152       27.2819426404      -67.9762981952  IONS      48              1.0000000000
        49        49  POT       POT            23.2430714563       25.7609600253       -3.3339762709  IONS      49              1.0000000000
        50        50  POT       POT            11.0530433026       70.6560492441      -23.6519649691  IONS      50              1.0000000000
        51        51  POT       POT           -58.6742586604      -29.4745319974      -42.7184594754  IONS      51              1.0000000000
        52        52  POT       POT           -55.5564509796       19.5562423165       60.9303049470  IONS      52              1.0000000000
        53        53  POT       POT             9.2045912583        8.7810056243       61.6154258722  IONS      53              1.0000000000
        54        54  POT       POT            10.9508516294       18.2233740341       21.9232535824  IONS      54              1.0000000000
        55        55  POT       POT            15.8161959924       -3.1040552861      -43.2535052338  IONS      55              1.0000000000
        56        56  POT       POT            -9.5390273087       61.2081645149       67.6517705459  IONS      56              1.0000000000
        57        57  POT       POT            58.3236376804       43.0537877974       -3.3135244171  IONS      57              1.0000000000
        58        58  POT       POT            18.7783575790       -6.7741486104       48.7194837721  IONS      58              1.0000000000
        59        59  POT       POT            12.6852031535      -56.4586093988      -40.4146030683  IONS      59              1.0000000000
        60        60  POT       POT           -51.8687186150        2.4003282480       61.6147899248  IONS      60              1.0000000000
        61        61  POT       POT            35.9523388835      -46.8080891136      -39.2117990962  IONS      61              1.0000000000
        62        62  POT       POT            27.8411199000      -60.7386493000       15.1496121000  IONS      62              1.0000000000
        63        63  POT       POT           -12.2362093975      -54.0790821870       -3.4911725050  IONS      63              1.0000000000
        64        64  POT       POT           -22.3428250922       63.9127935282      -52.4019949301  IONS      64              1.0000000000
        65        65  POT       POT           -66.1749492286        7.5659975765       38.1985665937  IONS      65              1.0000000000
        66        66  POT       POT            29.5313639227       69.6617509482       50.2395096635  IONS      66              1.0000000000
        67        67  POT       POT           -44.4002160619       -5.3196951297      -28.6607437845  IONS      67              1.0000000000
        68        68  POT       POT           -31.5695455088       15.5839242289      -39.2278759440  IONS      68              1.0000000000
        69        69  POT       POT            23.9859785952      -47.6404804113        2.1444122890  IONS      69              1.0000000000
        70        70  POT       POT            54.5985735079      -30.7125830761      -11.3642856654  IONS      70              1.0000000000
        71        71  POT       POT            31.3869239028       51.8989611674      -12.5451561316  IONS      71              1.0000000000
        72        72  POT       POT            67.6307820075       17.2180413886      -39.8364352469  IONS      72              1.0000000000
        73        73  POT       POT            29.7320114000       30.3747610000       56.0997285000  IONS      73              1.0000000000
        74        74  POT       POT           -66.6770975269      -26.4181000264       -5.8280411339  IONS      74              1.0000000000
        75        75  POT       POT           -46.5169083875      -23.2350177692       27.7738716822  IONS      75              1.0000000000
        76        76  POT       POT            -0.0734781760      -20.9845137853      -46.9637707958  IONS      76              1.0000000000
        77        77  POT       POT            65.4556494816       20.5088956005      -55.0277928246  IONS      77              1.0000000000
        78        78  POT       POT            23.3018683077       66.1844924116       29.7506993200  IONS      78              1.0000000000
        79        79  POT       POT           -42.9487911629       60.8856313658      -31.8189699062  IONS      79              1.0000000000
        80        80  POT       POT            68.2122560243      -35.8043695306       19.4371975775  IONS      80              1.0000000000
        81        81  POT       POT           -55.2100107000       12.0582136000      -52.4636212000  IONS      81              1.0000000000
        82        82  POT       POT            62.4070840061       28.4915180167       -2.2870642735  IONS      82              1.0000000000
        83        83  POT       POT            25.9205298328      -12.5047273072       50.2754334422  IONS      83              1.0000000000
        84        84  POT       POT            42.1721987383      -67.9576573858      -16.1642976208  IONS      84              1.0000000000
        85        85  POT       POT           -48.1994599839      -65.5279261819      -15.6259602751  IONS      85              1.0000000000
        86        86  POT       POT             7.1520573665      -50.3828986299      -58.8093875036  IONS      86              1.0000000000
        87        87  POT       POT             6.8203029953       55.5936011184      -63.3086390653  IONS      87              1.0000000000
        88        88  POT       POT            20.1685930772      -64.2345385728      -34.5217726722  IONS      88              1.0000000000
        89        89  POT       POT             7.0125849257      -13.2324465655      -17.9709178529  IONS      89              1.0000000000
        90        90  POT       POT           -32.8993011490       65.6367117044        5.5336656361  IONS      90              1.0000000000
        91        91  POT       POT           -37.8200018264       14.8017776612       47.5846546744  IONS      91              1.0000000000
        92        92  POT       POT           -26.3596683210       61.0345065392        6.5162922648  IONS      92              1.0000000000
        93        93  POT       POT            23.2058246730       -6.9008096378      -47.2990460824  IONS      93              1.0000000000
        94        94  POT       POT            15.0731492788      -30.5881970868      -18.3696834399  IONS      94              1.0000000000
        95        95  POT       POT            14.1852036464       22.1509055593      -54.4849358151  IONS      95              1.0000000000
        96        96  POT       POT           -43.8100462484      -17.4448498237      -40.2712065082  IONS      96              1.0000000000
        97        97  POT       POT            27.7826667524      -35.5175224218        5.4247260718  IONS      97              1.0000000000
        98        98  POT       POT           -50.6044885245      -61.2021558639       30.7450594005  IONS      98              1.0000000000
        99        99  POT       POT            37.8979093754      -36.0735121515       13.6018064806  IONS      99              1.0000000000
       100       100  POT       POT           -17.8748350231        6.6840724801      -27.3626799087  IONS      100             1.0000000000
       101       101  POT       POT            70.0348202973      -23.5421130885      -13.6823128437  IONS      101             1.0000000000
       102       102  POT       POT             8.7184759159      -41.4911179968       -7.8790451509  IONS      102             1.0000000000
       103       103  POT       POT            34.3543562014       27.6536407558       11.0147702652  IONS      103             1.0000000000
       104       104  POT       POT           -42.2188544460       44.2444678325       65.4742673084  IONS      104             1.0000000000
       105       105  POT       POT           -28.5218255591      -32.6029250999       49.7427611591  IONS      105             1.0000000000
       106       106  POT       POT            19.8870954739      -33.7062429155       23.2561344619  IONS      106             1.0000000000
       107       107  POT       POT            64.3322571511      -48.0551696440        9.7415480023  IONS      107             1.0000000000
       108       108  POT       POT            54.6140080077        5.8933100191      -54.6857068584  IONS      108             1.0000000000
       109       109  POT       POT            -9.3443797564        6.5423668718      -51.2846417951  IONS      109             1.0000000000
       110       110  POT       POT            50.7933888369      -43.2133463071       25.1186680116  IONS      110             1.0000000000
       111       111  POT       POT            27.1072260001       59.2560587022      -67.1816720976  IONS      111             1.0000000000
       112       112  POT       POT            43.3508135693      -62.8509866267      -45.7345919467  IONS      112             1.0000000000
       113       113  POT       POT            24.8113245378       41.8355267895      -24.2566318146  IONS      113             1.0000000000
       114       114  POT       POT            -6.1083679351      -17.2401922150       14.9721651620  IONS      114             1.0000000000
       115       115  POT       POT            58.7452259698       58.0315078404       57.1664345857  IONS      115             1.0000000000
       116       116  POT       POT            36.8563286073      -60.5971294785       48.4796420741  IONS      116             1.0000000000
       117       117  POT       POT            58.7961894577      -27.4816222770       -0.1153649959  IONS      117             1.0000000000
       118       118  POT       POT            31.2956865709       27.3265536880      -31.8046946739  IONS      118             1.0000000000
       119       119  POT       POT            56.3093634143       58.2289201467       -6.8306792791  IONS      119             1.0000000000
       120       120  POT       POT            21.6772743290        8.1724379630      -56.2458537291  IONS      120             1.0000000000
       121       121  POT       POT           -61.4203740022      -31.7334098213      -57.7849100198  IONS      121             1.0000000000
       122       122  POT       POT           -65.1400986512      -51.3341032375       41.5213454034  IONS      122             1.0000000000
       123       123  POT       POT            34.9304870086      -59.9587120055       30.5584288089  IONS      123             1.0000000000
       124       124  POT       POT             5.9939176139       21.4444858703       60.6129572178  IONS      124             1.0000000000
       125       125  POT       POT            62.2217486732       46.2161652029      -63.2119667440  IONS      125             1.0000000000
       126       126  POT       POT            49.0688880108       53.5433802736        9.7047352734  IONS      126             1.0000000000
       127       127  POT       POT           -67.3799641103       64.1272981633      -61.8295528471  IONS      127             1.0000000000
       128       128  POT       POT             1.3110591727       15.5392266275       35.2549116699  IONS      128             1.0000000000
       129       129  POT       POT            33.4524705731       11.6958734818       42.0517737601  IONS      129             1.0000000000
       130       130  POT       POT            -3.0352018575      -55.3656272791       49.2008497535  IONS      130             1.0000000000
       131       131  POT       POT            42.8686549409       48.6398744343      -13.9027845430  IONS      131             1.0000000000
       132       132  POT       POT           -28.9615045079      -63.8485285023      -12.4534929459  IONS      132             1.0000000000
       133       133  POT       POT           -61.7615182119      -45.1396258124       55.6835335804  IONS      133             1.0000000000
       134       134  POT       POT            32.0304338939       21.3834627734       33.1063475076  IONS      134             1.0000000000
       135       135  POT       POT           -54.9747030494       34.6040350220       49.9937257021  IONS      135             1.0000000000
       136       136  POT       POT            20.0540847767      -45.8597211704      -50.7983267883  IONS      136             1.0000000000
       137       137  POT       POT            52.9184025529       68.8216507008      -33.1822784301  IONS      137             1.0000000000
       138       138  POT       POT            55.7262788439       19.0489590034      -33.2065853271  IONS      138             1.0000000000
       139       139  POT       POT            19.2886061047        6.6075254225      -27.0945718222  IONS      139             1.0000000000
       140       140  POT       POT            65.7055169081      -38.2121889143       -2.6521195086  IONS      140             1.0000000000
       141       141  POT       POT            25.3791474928       41.7917253874       58.7650079001  IONS      141             1.0000000000
       142       142  POT       POT            52.5538809670      -59.1668666334       52.6922672156  IONS      142             1.0000000000
       143       143  POT       POT            -5.2363933057      -15.6044260318       47.1893530862  IONS      143             1.0000000000
       144       144  POT       POT            20.2596828813      -58.6620411390      -20.0109849168  IONS      144             1.0000000000
       145       145  POT       POT            61.9458902598       -4.0748972825      -51.2242833742  IONS      145             1.0000000000
       146       146  POT       POT            53.6124013288      -69.4149729058       31.8017361562  IONS      146             1.0000000000
       147       147  POT       POT            21.7756349803      -59.5342863754       53.7388468789  IONS      147             1.0000000000
       148       148  POT       POT           -30.7390012704      -56.6439775353      -68.5019187164  IONS      148             1.0000000000
       149       149  POT       POT           -62.5564044017       30.2996254155       39.7026736916  IONS      149             1.0000000000
       150       150  POT       POT            20.3676348000       40.5587939000      -49.5541294000  IONS      150             1.0000000000
       151       151  POT       POT           -11.1701043852      -31.2783160839       64.0190740679  IONS      151             1.0000000000
       152       152  POT       POT           -47.2402635000       26.5518862000      -56.0833797000  IONS      152             1.0000000000
       153       153  POT       POT            -1.7076287717       28.2986921121      -18.9097405842  IONS      153             1.0000000000
       154       154  POT       POT           -66.1476409517       50.8398218243      -53.0613381088  IONS      154             1.0000000000
       155       155  POT       POT            14.8202403000       36.4266291000       64.2439789000  IONS      155             1.0000000000
       156       156  POT       POT           -58.1095623930      -19.7223322069      -22.4770342294  IONS      156             1.0000000000
       157       157  POT       POT           -60.5343940062      -55.5327542609       69.5849338310  IONS      157             1.0000000000
       158       158  POT       POT           -40.7828357591       -2.4882008180      -15.8609861881  IONS      158             1.0000000000
       159       159  POT       POT            27.1530741337       45.1795322148        8.8907234967  IONS      159             1.0000000000
       160       160  POT       POT           -59.9161709417      -41.1433225764       45.0235787967  IONS      160             1.0000000000
       161       161  POT       POT            66.1706507413       -4.3814054545      -61.2130104255  IONS      161             1.0000000000
       162       162  POT       POT            -8.0971004142       -4.8369700634       41.8023920094  IONS      162             1.0000000000
       163       163  POT       POT           -37.8692159084       12.4335147555      -63.4017968016  IONS      163             1.0000000000
       164       164  POT       POT           -24.4508620459      -61.3970263866       -5.4678599849  IONS      164             1.0000000000
       165       165  POT       POT           -38.4509128226       64.6162895237       16.0985470108  IONS      165             1.0000000000
       166       166  POT       POT            17.5732386598       27.8952991297      -64.9225252884  IONS      166             1.0000000000
       167       167  POT       POT             9.8519887238       64.1366153062      -32.9166361886  IONS      167             1.0000000000
       168       168  POT       POT            65.3427536851      -18.5677180831       -6.0197208115  IONS      168             1.0000000000
       169       169  POT       POT           -21.8521937674       58.4685285079       65.0701080963  IONS      169             1.0000000000
       170       170  POT       POT             5.5317617967      -40.4455637708      -52.3066486579  IONS      170             1.0000000000
       171       171  POT       POT            32.7163380693       -9.7929440915      -37.0214580673  IONS      171             1.0000000000
       172       172  POT       POT           -28.1943871000       14.1220137000       33.3700453000  IONS      172             1.0000000000
       173       173  POT       POT           -54.4092634443       23.2758614182       16.3145196168  IONS      173             1.0000000000
       174       174  POT       POT             2.3629543330       -6.3592767366       14.5744044334  IONS      174             1.0000000000
       175       175  POT       POT            68.6949172781       38.8190941698       -2.5238956050  IONS      175             1.0000000000
       176       176  POT       POT            62.8261477652       17.9655827884        8.9814147260  IONS      176             1.0000000000
       177       177  POT       POT             7.1621705139       -1.0258223752       28.7036972377  IONS      177             1.0000000000
       178       178  POT       POT            -4.8143133669       64.5146157353       16.1614800580  IONS      178             1.0000000000
       179       179  POT       POT            11.2455226094       -7.2518430135      -48.8909975003  IONS      179             1.0000000000
       180       180  POT       POT            36.6070035190      -56.7489872201       59.0461201866  IONS      180             1.0000000000
       181       181  POT       POT           -17.8738318016      -29.7802584897       -7.4493095282  IONS      181             1.0000000000
       182       182  POT       POT           -14.8014029000      -15.1714747000       39.5825902000  IONS      182             1.0000000000
       183       183  POT       POT            14.6290536972       -5.5237528731       14.3170807377  IONS      183             1.0000000000
       184       184  POT       POT            65.9013148669       56.7910803144      -62.0091202761  IONS      184             1.0000000000
       185       185  POT       POT           -47.7395884499        4.3519126072       31.5852364189  IONS      185             1.0000000000
       186       186  POT       POT           -18.7215827000      -29.7850973000       21.4284637000  IONS      186             1.0000000000
       187       187  POT       POT            22.2521674000      -24.4659743000      -44.3031206000  IONS      187             1.0000000000
       188       188  POT       POT            23.7673436891      -43.8030052565      -41.9302014677  IONS      188             1.0000000000
       189       189  POT       POT           -43.1426412032      -31.2114921215      -51.2348812723  IONS      189             1.0000000000
       190       190  POT       POT            -4.7572132518        0.8199021520       -7.5997999741  IONS      190             1.0000000000
       191       191  POT       POT            12.2400238316       37.4945322641      -19.9651908992  IONS      191             1.0000000000
       192       192  POT       POT           -16.7205069645      -38.0334919066      -35.1278143169  IONS      192             1.0000000000
       193       193  POT       POT            -4.4027564505       32.4117877690       22.8498124292  IONS      193             1.0000000000
       194       194  POT       POT           -33.4751764096       32.1992212184       30.9345013259  IONS      194             1.0000000000
       195       195  POT       POT            46.4885317000       59.4626275000      -59.5710319000  IONS      195             1.0000000000
       196       196  POT       POT           -54.7647714812      -69.8099655847      -58.3288319644  IONS      196             1.0000000000
       197       197  POT       POT           -57.8248180892       34.9087533156       31.6896220472  IONS      197             1.0000000000
       198       198  POT       POT           -22.4938517957       33.6486260042      -18.8649048962  IONS      198             1.0000000000
       199       199  POT       POT            -3.0798072381       39.3775581154       26.3020311949  IONS      199             1.0000000000
       200       200  POT       POT           -15.8964375051       18.9477824532       65.4647126043  IONS      200             1.0000000000
       201       201  POT       POT            32.2941947424       41.1754541894      -13.7448760818  IONS      201             1.0000000000
       202       202  POT       POT           -18.2576843519       20.1833360261      -15.6892088422  IONS      202             1.0000000000
       203       203  POT       POT           -33.7852675899      -60.7569809615        6.7493625119  IONS      203             1.0000000000
       204       204  POT       POT           -63.6226876042      -49.6040700909       17.6620550626  IONS      204             1.0000000000
       205       205  POT       POT           -31.5519540575      -18.4803081010       41.6698282954  IONS      205             1.0000000000
       206       206  POT       POT            28.5572517047      -39.3013168313      -27.6035868975  IONS      206             1.0000000000
       207       207  POT       POT            30.5851572215        1.7305727012       64.7756980086  IONS      207             1.0000000000
       208       208  POT       POT           -13.3419534000      -32.7210618000       15.1436062000  IONS      208             1.0000000000
       209       209  POT       POT            -5.0863119177       12.5352464250        9.8874763198  IONS      209             1.0000000000
       210       210  POT       POT           -43.0743111990       33.0667147248       65.6451003454  IONS      210             1.0000000000
       211       211  POT       POT            70.7493838837       43.1558149537       22.5726409037  IONS      211             1.0000000000
       212       212  POT       POT           -42.4098118696       20.8958460174       34.0080893938  IONS      212             1.0000000000
       213       213  POT       POT           -43.1637547822      -23.7164048966       50.5087101674  IONS      213             1.0000000000
       214       214  POT       POT            69.6232844078        0.6490429034       52.0889307837  IONS      214             1.0000000000
       215       215  POT       POT             9.2773687997       31.9089244994      -57.6018646025  IONS      215             1.0000000000
       216       216  POT       POT            25.6435809058      -56.1399053334       -9.1895701996  IONS      216             1.0000000000
       217       217  POT       POT             4.7233306470      -19.3855509124       19.5081733466  IONS      217             1.0000000000
       218       218  POT       POT           -45.7466879803      -69.8041882494       70.6777785850  IONS      218             1.0000000000
       219       219  POT       POT            37.5880029136      -33.9411537033      -64.6409734961  IONS      219             1.0000000000
       220       220  POT       POT           -54.0234976775       51.9127251824       37.6914954203  IONS      220             1.0000000000
       221       221  POT       POT           -16.4648584000       50.2902771000       30.6960162000  IONS      221             1.0000000000
       222       222  POT       POT            25.7536508149      -58.5556999932       49.1758926092  IONS      222             1.0000000000
       223       223  POT       POT            17.6617225802        4.1580821950      -44.9127570631  IONS      223             1.0000000000
       224       224  POT       POT           -61.9301367310       -8.5262215628      -39.3845828183  IONS      224             1.0000000000
       225       225  POT       POT           -59.5852352673      -49.9944801441      -67.0993543777  IONS      225             1.0000000000
       226       226  POT       POT           -12.4597688000       13.2251900000       63.6615178000  IONS      226             1.0000000000
       227       227  POT       POT            35.4497127884       48.0159652074      -26.4828282142  IONS      227             1.0000000000
       228       228  POT       POT           -30.2681854764       33.7175876913      -42.8882768312  IONS      228             1.0000000000
       229       229  POT       POT           -54.1380618951       41.2494336939      -64.7694726792  IONS      229             1.0000000000
       230       230  POT       POT            14.4538273489       52.0019896626      -51.9371964381  IONS      230             1.0000000000
       231       231  POT       POT           -37.5357374314        4.4115001868      -13.6583639335  IONS      231             1.0000000000
       232       232  POT       POT           -58.3721502766      -32.2362861832       10.4000084476  IONS      232             1.0000000000
       233       233  POT       POT           -19.1171229000       13.3802601000      -26.0439415000  IONS      233             1.0000000000
       234       234  POT       POT            68.7295472359       45.6692487318      -69.3705174499  IONS      234             1.0000000000
       235       235  POT       POT           -10.6229941722       31.3752115828      -69.7241048986  IONS      235             1.0000000000
       236       236  POT       POT           -50.2691797107      -12.9169009696       56.4468952367  IONS      236             1.0000000000
       237       237  POT       POT            46.8081851513      -10.3557517150      -51.3223171057  IONS      237             1.0000000000
       238       238  POT       POT            -2.0678821785       28.2870133503       48.6970410779  IONS      238             1.0000000000
       239       239  POT       POT            42.1556766329       48.3462033686       59.9562500568  IONS      239             1.0000000000
       240       240  POT       POT            36.9230646137      -51.9146907856      -11.4927300275  IONS      240             1.0000000000
       241       241  POT       POT           -22.0304587649       47.1398485613       35.7790121928  IONS      241             1.0000000000
       242       242  POT       POT            35.5472431187      -29.9316762843       17.5719360946  IONS      242             1.0000000000
       243       243  POT       POT           -50.2919593969      -25.1035939881       39.6403688208  IONS      243             1.0000000000
       244       244  POT       POT            12.3414126219       -2.4613636513      -20.8533328916  IONS      244             1.0000000000
       245       245  POT       POT           -22.7805616564       41.1499485059       70.7252144115  IONS      245             1.0000000000
       246       246  POT       POT           -14.4573395871       27.0285362282       28.0696863005  IONS      246             1.0000000000
       247       247  POT       POT             9.0279377106       35.3711508750      -23.1986755807  IONS      247             1.0000000000
       248       248  POT       POT           -67.8647752932      -21.4543299822      -35.8876523338  IONS      248             1.0000000000
       249       249  CLA       CLA           -51.5258335632      -13.3215681149       19.9770593224  IONS      249            -1.0000000000
       250       250  CLA       CLA           -14.0339002878       54.0676248515       61.3159722120  IONS      250            -1.0000000000
       251       251  CLA       CLA           -58.2497726957       -2.9001045970       16.7820411265  IONS      251            -1.0000000000
       252       252  CLA       CLA            35.2832894510      -21.8434526384      -38.5339788762  IONS      252            -1.0000000000
       253       253  CLA       CLA           -53.5432782810       11.3047379770        5.4356005333  IONS      253            -1.0000000000
       254       254  CLA       CLA           -65.1425443133       12.3087985779      -46.2814337508  IONS      254            -1.0000000000
       255       255  CLA       CLA           -21.3650167200      -45.7762217979      -12.2581731176  IONS      255            -1.0000000000
       256       256  CLA       CLA            -7.8003472328       15.2705411196       18.9000491702  IONS      256            -1.0000000000
       257       257  CLA       CLA            70.3549549112      -31.8354636914      -35.5397007671  IONS      257            -1.0000000000
       258       258  CLA       CLA           -35.4252749460       69.7707745162       40.9346141313  IONS      258            -1.0000000000
       259       259  CLA       CLA           -29.1940986017       69.8688420575       60.6730142153  IONS      259            -1.0000000000
       260       260  CLA       CLA           -24.8351879828       11.9284443216       38.6551619052  IONS      260            -1.0000000000
       261       261  CLA       CLA            58.5019462193       34.5828814111       -7.2516840656  IONS      261            -1.0000000000
       262       262  CLA       CLA           -55.4305167507      -53.0368190980      -22.8159677045  IONS      262            -1.0000000000
       263       263  CLA       CLA            53.4462624194      -54.1392722005       70.6680612554  IONS      263            -1.0000000000
       264       264  CLA       CLA           -63.4401864745       -7.4106870375       -3.5080069804  IONS      264            -1.0000000000
       265       265  CLA       CLA           -19.3682540234      -44.7165135838      -59.2519163865  IONS      265            -1.0000000000
       266       266  CLA       CLA           -46.9513400932      -30.7093617499       48.1991966329  IONS      266            -1.0000000000
       267       267  CLA       CLA           -11.0417965998       17.7718369922        0.8041939876  IONS      267            -1.0000000000
       268       268  CLA       CLA           -19.6275896756       40.4193551558       67.4985889458  IONS      268            -1.0000000000
       269       269  CLA       CLA            64.4398654000      -33.5995733000       14.5359190000  IONS      269            -1.0000000000
       270       270  CLA       CLA            -0.5075768763       46.5774190318       46.9476290853  IONS      270            -1.0000000000
       271       271  CLA       CLA           -53.9133668755       68.9122285771      -13.2569144630  IONS      271            -1.0000000000
       272       272  CLA       CLA           -42.3648732978      -64.5453918052      -10.0619019936  IONS      272            -1.0000000000
       273       273  CLA       CLA             5.3836218465      -56.0206708635       66.9248687675  IONS      273            -1.0000000000
       274       274  CLA       CLA            56.5712961886       25.8620705049      -35.3521914713  IONS      274            -1.0000000000
       275       275  CLA       CLA             7.6737391114      -38.6344628136        4.9992076957  IONS      275            -1.0000000000
       276       276  CLA       CLA           -36.6599702883       18.1729374747       34.2808432112  IONS      276            -1.0000000000
       277       277  CLA       CLA           -17.2399924062      -67.2241548300      -66.4695921567  IONS      277            -1.0000000000
       278       278  CLA       CLA           -28.5708386000       12.3106778000       27.6957007000  IONS      278            -1.0000000000
       279       279  CLA       CLA            67.9749732899      -42.3594922719      -69.1394820497  IONS      279            -1.0000000000
       280       280  CLA       CLA            43.1529202000       55.9049849000       31.1296853000  IONS      280            -1.0000000000
       281       281  CLA       CLA           -51.9965668975       15.6394583523       16.7890455222  IONS      281            -1.0000000000
       282       282  CLA       CLA            64.7009683291       23.7231883587      -12.7399758965  IONS      282            -1.0000000000
       283       283  CLA       CLA           -53.0480178889      -10.0111446281      -39.5042197797  IONS      283            -1.0000000000
       284       284  CLA       CLA           -23.1990343064       33.6161711006       69.2381344301  IONS      284            -1.0000000000
       285       285  CLA       CLA            53.3339716359       50.9616642899      -12.3454944958  IONS      285            -1.0000000000
       286       286  CLA       CLA           -54.6315766149      -28.8137941041       39.1365364757  IONS      286            -1.0000000000
       287       287  CLA       CLA            21.6340993742      -64.0481989160      -22.4003886800  IONS      287            -1.0000000000
       288       288  CLA       CLA            48.9871072418      -23.9009919876      -13.3264834089  IONS      288            -1.0000000000
       289       289  CLA       CLA           -23.2502526382       16.5140838217      -44.6042049322  IONS      289            -1.0000000000
       290       290  CLA       CLA           -32.0110050282       29.3310168560      -54.5279609930  IONS      290            -1.0000000000
       291       291  CLA       CLA           -24.5729519332       39.5792295462      -45.5927330995  IONS      291            -1.0000000000
       292       292  CLA       CLA            -9.8886287989       56.8659683737       22.0830177408  IONS      292            -1.0000000000
       293       293  CLA       CLA            21.1347252817       17.9255697781       24.2472957728  IONS      293            -1.0000000000
       294       294  CLA       CLA            -3.3952102279        0.8465518929       18.0993545283  IONS      294            -1.0000000000
       295       295  CLA       CLA           -63.2066022984      -26.8707547093      -11.6695670794  IONS      295            -1.0000000000
       296       296  CLA       CLA            18.6414861202       55.7315339182      -41.7883943101  IONS      296            -1.0000000000
       297       297  CLA       CLA           -35.6949211083      -16.2339943873      -33.2337343625  IONS      297            -1.0000000000
       298       298  CLA       CLA            -6.0027635234       -3.6297973396      -13.5477896866  IONS      298            -1.0000000000
       299       299  CLA       CLA            41.2589383918      -57.6723213983      -47.1706464182  IONS      299            -1.0000000000
       300       300  CLA       CLA            57.8225429866      -46.3571292566       -6.7324564026  IONS      300            -1.0000000000
       301       301  CLA       CLA           -23.2090156407        1.5703119691       59.3309210006  IONS      301            -1.0000000000
       302       302  CLA       CLA           -68.9667406803       16.6228569950      -56.2403665892  IONS      302            -1.0000000000
       303       303  CLA       CLA            61.3090190514       19.4215733388        2.8829734381  IONS      303            -1.0000000000
       304       304  CLA       CLA            27.7428908428       51.4950771554       11.7069451345  IONS      304            -1.0000000000
       305       305  CLA       CLA            12.3559497308       -0.5286008638      -49.4604757138  IONS      305            -1.0000000000
       306       306  CLA       CLA            21.5704487817      -68.4085831091       16.6804525365  IONS      306            -1.0000000000
       307       307  CLA       CLA            67.2034791744       31.0393074393       48.8148092058  IONS      307            -1.0000000000
       308       308  CLA       CLA           -60.1067403788      -18.7931815952       55.7833256013  IONS      308            -1.0000000000
       309       309  CLA       CLA           -35.2694782261      -34.7661072191       29.5994068434  IONS      309            -1.0000000000
       310       310  CLA       CLA            37.3620667252      -65.0476533774      -10.7162506809  IONS      310            -1.0000000000
       311       311  CLA       CLA            64.9901837286      -56.2074650360      -49.7736134256  IONS      311            -1.0000000000
       312       312  CLA       CLA           -66.9655639472        4.2677337832       46.7179165200  IONS      312            -1.0000000000
       313       313  CLA       CLA           -55.8432800989       26.3656802972       38.0208647034  IONS      313            -1.0000000000
       314       314  CLA       CLA           -21.9421310812       40.8232439034       37.1306688509  IONS      314            -1.0000000000
       315       315  CLA       CLA           -70.3183564131      -60.5855429009       59.0419249774  IONS      315            -1.0000000000
       316       316  CLA       CLA            11.5879332787      -37.7569587989       22.9021012065  IONS      316            -1.0000000000
       317       317  CLA       CLA           -10.0785133123      -13.2110746923       44.2802232002  IONS      317            -1.0000000000
       318       318  CLA       CLA            25.9072122089      -30.3537494741      -15.7926125577  IONS      318            -1.0000000000
       319       319  CLA       CLA            66.2290198170       26.0697599949      -31.3647033885  IONS      319            -1.0000000000
       320       320  CLA       CLA            33.5371725307       65.0301695690      -64.1959799413  IONS      320            -1.0000000000
       321       321  CLA       CLA             3.1545131979       57.8097048450      -70.4332018451  IONS      321            -1.0000000000
       322       322  CLA       CLA           -13.1431295831       50.0310755911      -15.7529598559  IONS      322            -1.0000000000
       323       323  CLA       CLA           -66.6537016142       63.4175218058      -39.4276060301  IONS      323            -1.0000000000
       324       324  CLA       CLA            20.3597038086      -67.1352002039       55.9393554738  IONS      324            -1.0000000000
       325       325  CLA       CLA           -66.2341068855      -15.1230844448      -20.0701968096  IONS      325            -1.0000000000
       326       326  CLA       CLA             2.7338080489       61.7533410284       17.4521536160  IONS      326            -1.0000000000
       327       327  CLA       CLA           -68.0250368531       41.7278941735      -51.7742376092  IONS      327            -1.0000000000
       328       328  CLA       CLA            45.7393677977       42.8796140142       15.0127542905  IONS      328            -1.0000000000
       329       329  CLA       CLA            18.5102965937        7.9405273314      -52.5581280934  IONS      329            -1.0000000000
       330       330  CLA       CLA            52.0173586242       42.4405462155       30.3498557829  IONS      330            -1.0000000000
       331       331  CLA       CLA            59.5001584503      -12.2820212134       29.0906717100  IONS      331            -1.0000000000
       332       332  CLA       CLA             1.1978949442        2.2621059175      -53.5587776843  IONS      332            -1.0000000000
       333       333  CLA       CLA           -26.9146681490       65.4007791293      -54.1115188569  IONS      333            -1.0000000000
       334       334  CLA       CLA             9.8910360222        0.1595785658       66.3658499806  IONS      334            -1.0000000000
       335       335  CLA       CLA            67.9884925636       -5.6510871042      -52.6233355752  IONS      335            -1.0000000000
       336       336  CLA       CLA            62.4559753008       43.9791982745      -67.6884558000  IONS      336            -1.0000000000
       337       337  CLA       CLA             7.2908934210       62.4264110184      -29.0611902870  IONS      337            -1.0000000000
       338       338  CLA       CLA            18.9318393379       -6.8501541725      -25.0993568109  IONS      338            -1.0000000000
       339       339  CLA       CLA           -43.3770064851      -63.2897911104       52.2921790389  IONS      339            -1.0000000000
       340       340  CLA       CLA           -61.6040208220       38.1495060057      -31.6147616347  IONS      340            -1.0000000000
       341       341  CLA       CLA            44.0153911313      -25.7698078320      -16.1480290898  IONS      341            -1.0000000000
       342       342  CLA       CLA            68.6630940916       35.2913265089        2.6413949409  IONS      342            -1.0000000000
       343       343  CLA       CLA            18.4621178223      -55.7142143217       52.0388582723  IONS      343            -1.0000000000
       344       344  CLA       CLA            19.7353129270       -9.2977973429      -41.6314917988  IONS      344            -1.0000000000
       345       345  CLA       CLA           -63.2763473810      -41.7090546936       69.2173323878  IONS      345            -1.0000000000
       346       346  CLA       CLA           -51.3672302021       12.8082969040      -47.2798242940  IONS      346            -1.0000000000
       347       347  CLA       CLA            -7.4385588206      -33.2145406762       40.9825682849  IONS      347            -1.0000000000
       348       348  CLA       CLA            -4.0385511705      -62.9680945084       63.8805633108  IONS      348            -1.0000000000
       349       349  CLA       CLA            59.4599625744      -26.5366760477      -17.1728428181  IONS      349            -1.0000000000
       350       350  CLA       CLA            52.4112060731        2.5889001186       13.4872280164  IONS      350            -1.0000000000
       351       351  CLA       CLA            48.2069143327       43.4295098770       58.9651342129  IONS      351            -1.0000000000
       352       352  CLA       CLA            28.7747298612      -20.3249669075      -28.2036923808  IONS      352            -1.0000000000
       353       353  CLA       CLA           -53.3953406094       30.6752211650      -13.1616800495  IONS      353            -1.0000000000
       354       354  CLA       CLA           -65.1679133996       24.5080646069       15.1917273896  IONS      354            -1.0000000000
       355       355  CLA       CLA           -10.7428952652      -35.0571986938      -66.6848454845  IONS      355            -1.0000000000
       356       356  CLA       CLA           -23.8565896903       18.2189747017       15.6782710092  IONS      356            -1.0000000000
       357       357  CLA       CLA           -45.1376576861      -62.9680468882       33.7330669299  IONS      357            -1.0000000000
       358       358  CLA       CLA           -60.9718532937      -57.0022903998       51.2625112971  IONS      358            -1.0000000000
       359       359  CLA       CLA            -9.6545081628      -28.2800099051      -39.6024301094  IONS      359            -1.0000000000
       360       360  CLA       CLA            34.1683486968      -14.8536470111       43.6643910454  IONS      360            -1.0000000000
       361       361  CLA       CLA            18.7235234565      -43.5144612870       57.9444019260  IONS      361            -1.0000000000
       362       362  CLA       CLA            37.7543549673       38.0785449450       58.7009230486  IONS      362            -1.0000000000
       363       363  CLA       CLA           -55.7021471245       -2.9350716391       49.1048180474  IONS      363            -1.0000000000
       364       364  CLA       CLA           -34.3583736940       10.8126009105       18.7408603967  IONS      364            -1.0000000000
       365       365  CLA       CLA           -34.3635304002       63.3920402463      -25.4542952469  IONS      365            -1.0000000000
       366       366  CLA       CLA           -23.1381620409      -67.5769225596       39.2074209120  IONS      366            -1.0000000000
       367       367  CLA       CLA            27.6401483158       13.4468880693       32.7496139481  IONS      367            -1.0000000000
       368       368  CLA       CLA            25.9406021940       25.0159096951        5.2903234136  IONS      368            -1.0000000000
       369       369  CLA       CLA            14.4523732589      -65.4221561263      -12.0113506220  IONS      369            -1.0000000000
       370       370  CLA       CLA            -1.1719380105       34.4865264371       20.3210577071  IONS      370            -1.0000000000
       371       371  CLA       CLA            62.3254127177       49.9828612111      -68.3942376737  IONS      371            -1.0000000000
       372       372  CLA       CLA            24.0090808319      -57.1032969621      -22.3836763129  IONS      372            -1.0000000000
       373       373  CLA       CLA           -43.1770780683        1.5167338601      -17.9248778971  IONS      373            -1.0000000000
       374       374  CLA       CLA           -53.8035054224      -63.8216890661       -2.6980008077  IONS      374            -1.0000000000
       375       375  CLA       CLA           -19.8912715048      -24.3376542077      -67.8116941986  IONS      375            -1.0000000000
       376       376  CLA       CLA            24.8107308347      -19.3910140768        6.6050130449  IONS      376            -1.0000000000
       377       377  CLA       CLA           -55.7439246363      -38.3018669073       37.2025175007  IONS      377            -1.0000000000
       378       378  CLA       CLA            11.9383967832       23.7383060844       65.2129170814  IONS      378            -1.0000000000
       379       379  CLA       CLA           -35.1434537777      -44.8430372890      -61.1769732276  IONS      379            -1.0000000000
       380       380  CLA       CLA           -40.5954701613      -39.4017055765      -15.1314631949  IONS      380            -1.0000000000
       381       381  CLA       CLA            11.8169847837      -38.4981168860       17.1249431651  IONS      381            -1.0000000000
       382       382  CLA       CLA            62.6797893126      -38.2706304333      -32.2619953374  IONS      382            -1.0000000000
       383       383  CLA       CLA            39.0061344239      -52.5392825805       41.1869441586  IONS      383            -1.0000000000
       384       384  CLA       CLA            21.2040190492      -55.1361765802      -35.7854327956  IONS      384            -1.0000000000
       385       385  CLA       CLA             3.3624957607       36.0426138810      -17.9762666538  IONS      385            -1.0000000000
       386       386  CLA       CLA           -35.2397001098      -52.7934593319       48.1697513553  IONS      386            -1.0000000000
       387       387  CLA       CLA            65.8307336640      -19.4301448909       22.0665704982  IONS      387            -1.0000000000
       388       388  CLA       CLA           -51.5371732742       -2.7144677297       61.7089727637  IONS      388            -1.0000000000
       389       389  CLA       CLA           -10.0449365815       63.4015851987      -70.7550086907  IONS      389            -1.0000000000
       390       390  CLA       CLA            21.9142870533      -47.2486367882       35.9722999660  IONS      390            -1.0000000000
       391       391  CLA       CLA           -57.6486729899      -67.4052616350      -28.4697322232  IONS      391            -1.0000000000
       392       392  CLA       CLA           -54.9633665080       37.0594605497      -67.4586151329  IONS      392            -1.0000000000
       393       393  CLA       CLA           -70.7375763078       23.3312898026      -44.4553929042  IONS      393            -1.0000000000
       394       394  CLA       CLA            15.2472417648      -41.1756258054      -43.2986137056  IONS      394            -1.0000000000
       395       395  CLA       CLA           -70.6455265925       60.0122131013      -56.0289018952  IONS      395            -1.0000000000
       396       396  CLA       CLA            -9.1719964921        8.1857331915        6.3705700942  IONS      396            -1.0000000000
       397       397  CLA       CLA            64.5209043979       44.5859659350      -58.2569506819  IONS      397            -1.0000000000
       398       398  CLA       CLA            12.3027687901      -64.5249671314        6.6115719657  IONS      398            -1.0000000000
       399       399  CLA       CLA           -57.6503299000      -67.0488445000      -55.8292758000  IONS      399            -1.0000000000
       400       400  CLA       CLA            23.4785513858      -51.4942579992       12.3629263169  IONS      400            -1.0000000000
       401       401  CLA       CLA           -49.6001530797       61.1791586083       14.2257148499  IONS      401            -1.0000000000
       402       402  CLA       CLA            23.1514524756       -8.9590223444       46.8481497101  IONS      402            -1.0000000000
       403       403  CLA       CLA            51.6260146835      -45.2250264635       29.4107644014  IONS      403            -1.0000000000
       404       404  CLA       CLA           -55.1370878337       56.6096098848       53.3196763163  IONS      404            -1.0000000000
       405       405  CLA       CLA            38.2790557214      -35.4187514323      -56.9703554670  IONS      405            -1.0000000000
       406       406  CLA       CLA            22.6364677247       69.4498210490        4.7030549968  IONS      406            -1.0000000000
       407       407  CLA       CLA            54.4258560238       26.4904326168        2.8931712947  IONS      407            -1.0000000000
       408       408  CLA       CLA            26.7329666809      -47.7398052407      -41.5001548004  IONS      408            -1.0000000000
       409       409  CLA       CLA            60.6830962179       30.7729743978      -66.5718101939  IONS      409            -1.0000000000
       410       410  CLA       CLA           -66.1625411296       44.3789310169       32.0757124892  IONS      410            -1.0000000000
       411       411  CLA       CLA            -3.1355991603       36.5960225065       34.2251482559  IONS      411            -1.0000000000
       412       412  CLA       CLA            29.0792841035       60.4465167821       -4.8890695175  IONS      412            -1.0000000000
       413       413  CLA       CLA            19.7334492073      -41.9642572092      -27.2829338292  IONS      413            -1.0000000000
       414       414  CLA       CLA           -11.6944820643       56.3591043188       41.9936719055  IONS      414            -1.0000000000
       415       415  CLA       CLA            25.3848774919      -50.2860590008      -49.6965941247  IONS      415            -1.0000000000
       416       416  CLA       CLA            24.4340739267       46.1547535853       56.8460852055  IONS      416            -1.0000000000
       417       417  CLA       CLA           -64.7000001538       -3.6870957195      -47.6331954514  IONS      417            -1.0000000000
       418       418  CLA       CLA            42.1799560000      -47.7302109000      -25.0020137000  IONS      418            -1.0000000000
       419       419  CLA       CLA             1.4654661288      -17.0294668827       39.7100682631  IONS      419            -1.0000000000
       420       420  CLA       CLA           -34.3339559376      -38.5819733554      -44.2647261742  IONS      420            -1.0000000000
       421       421  CLA       CLA           -32.2536108046       32.5813874818        6.3911579200  IONS      421            -1.0000000000
       422       422  CLA       CLA            19.3873316803        3.1081322254       47.7071666892  IONS      422            -1.0000000000
       423       423  CLA       CLA            12.0974422115       38.6459762994       59.9264107349  IONS      423            -1.0000000000
       424       424  CLA       CLA            29.7377515004       43.2218609326       -4.0119116781  IONS      424            -1.0000000000
       425       425  CLA       CLA           -63.3903888714       60.4970225133       62.1852421568  IONS      425            -1.0000000000
       426       426  CLA       CLA             3.6046815002      -29.3509434480      -23.0179511764  IONS      426            -1.0000000000
       427       427  CLA       CLA            -5.3614460247      -46.9505726350       48.7638000035  IONS      427            -1.0000000000
       428       428  CLA       CLA           -61.9850047586       27.4641315807      -10.7908326034  IONS      428            -1.0000000000
       429       429  CLA       CLA            -7.0159990486      -70.5609196453      -69.2113164093  IONS      429            -1.0000000000
       430       430  CLA       CLA           -47.1387745450        2.0422844210       23.8552053928  IONS      430            -1.0000000000
       431       431  CLA       CLA            -4.2431102596      -45.3099090442       -6.6244148526  IONS      431            -1.0000000000
       432       432  CLA       CLA           -23.7924429291       26.5226809192      -20.5304443168  IONS      432            -1.0000000000
       433       433  CLA       CLA           -59.3746766020      -25.8360009924      -37.4935958540  IONS      433            -1.0000000000
       434       434  CLA       CLA            39.1482329015       51.5816883929       27.5809933837  IONS      434            -1.0000000000
       435       435  CLA       CLA           -48.3394571776       -4.5718422306       33.3400046030  IONS      435            -1.0000000000
       436       436  CLA       CLA            44.3371755632      -16.5305547271      -39.4367656993  IONS      436            -1.0000000000
       437       437  CLA       CLA           -30.4235342143       -6.8415647921      -31.9448940190  IONS      437            -1.0000000000
       438       438  CLA       CLA            -3.0844882133       15.9666389552       36.5203696829  IONS      438            -1.0000000000
       439       439  CLA       CLA             4.9851432963       -9.3517232462      -54.5872018470  IONS      439            -1.0000000000
       440       440  CLA       CLA            56.7837117000      -35.5402030000      -60.8790145000  IONS      440            -1.0000000000
       441       441  CLA       CLA            29.1270931810       -7.3751415526      -63.4621698483  IONS      441            -1.0000000000
       442       442  CLA       CLA            11.7799676135       -3.2265810655      -60.3916059972  IONS      442            -1.0000000000
       443       443  CLA       CLA            -4.0138083502        3.4325658689      -51.7520656956  IONS      443            -1.0000000000
       444       444  CLA       CLA            10.7436913143       14.3194491447       -2.1849052727  IONS      444            -1.0000000000
       445       445  CLA       CLA            45.3487088168        9.1867855406      -52.7739085675  IONS      445            -1.0000000000
       446       446  CLA       CLA            -4.0356381771      -66.5334607844      -47.0496371751  IONS      446            -1.0000000000
       447       447  CLA       CLA             6.3399499925      -15.4330644979       30.2337481239  IONS      447            -1.0000000000
       448       448  CLA       CLA            16.7513950634       26.1463259788      -15.1615327072  IONS      448            -1.0000000000
       449       449  CLA       CLA            59.5563698685      -36.6938782953      -11.9456982094  IONS      449            -1.0000000000
       450       450  CLA       CLA           -21.0102689226       43.6070653062      -68.8885823169  IONS      450            -1.0000000000
       451       451  CLA       CLA            62.5859459180      -47.8408643371       40.4233176151  IONS      451            -1.0000000000
       452       452  CLA       CLA            62.5775002018       44.0005352044       17.6270455125  IONS      452            -1.0000000000
       453       453  CLA       CLA            -3.1106405166       21.1402015356       54.4015426138  IONS      453            -1.0000000000
       454       454  CLA       CLA           -11.4746528038      -60.3455601537       -5.8544665608  IONS      454            -1.0000000000
       455       455  CLA       CLA           -11.4673368923      -16.0380641955       -1.7323451946  IONS      455            -1.0000000000
       456       456  CLA       CLA            63.9239397944      -22.2789796833      -18.8641986790  IONS      456            -1.0000000000
       457       457  CLA       CLA             3.2189946092       26.6371819976      -20.5832705903  IONS      457            -1.0000000000
       458       458  CLA       CLA            37.5183985250      -12.5011855888      -55.3931812992  IONS      458            -1.0000000000
       459       459  CLA       CLA            31.8420283034       34.2021248171      -20.6353680989  IONS      459            -1.0000000000
       460       460  CLA       CLA           -45.4568226644      -27.5742065145      -68.2264165036  IONS      460            -1.0000000000
       461       461  CLA       CLA           -37.0307123732       34.4734050225       70.1092095710  IONS      461            -1.0000000000
       462       462  CLA       CLA            31.2383072162      -32.9771294701       45.3829670385  IONS      462            -1.0000000000
       463       463  CLA       CLA           -48.0889335544       -5.7826375325       61.6055856990  IONS      463            -1.0000000000
       464       464  CLA       CLA           -15.1064754190      -48.1095949441       54.8456923705  IONS      464            -1.0000000000
       465       465  CLA       CLA            34.9743475008      -53.4662003925      -15.9421167660  IONS      465            -1.0000000000
       466       466  CLA       CLA            56.7882064062       68.0292136402      -30.9573744128  IONS      466            -1.0000000000
       467       467  CLA       CLA           -62.3408129214      -21.3240368768       10.5311595842  IONS      467            -1.0000000000
       468       468  CLA       CLA            62.6963171347      -60.9494625934       54.2303397095  IONS      468            -1.0000000000
       469       469  CLA       CLA            51.8526395912       22.6615155808       35.4412004196  IONS      469            -1.0000000000
       470       470  CLA       CLA            17.1556697000       13.6017239000      -13.7296719000  IONS      470            -1.0000000000
       471       471  CLA       CLA           -38.3103941000      -67.5170974000       62.7101807000  IONS      471            -1.0000000000
       472       472  CLA       CLA            43.2526201115       68.1388934395      -65.8166419983  IONS      472            -1.0000000000
       473       473  CLA       CLA           -21.8061695000       13.7702627000       66.5457575000  IONS      473            -1.0000000000
       474       474  CLA       CLA            15.8211920397      -21.7682151949      -58.8238067861  IONS      474            -1.0000000000
       475       475  CLA       CLA             1.7336542884      -21.5341362563       16.8304422136  IONS      475            -1.0000000000
       476       476  CLA       CLA            19.8093620192      -35.8210631438        0.4697541364  IONS      476            -1.0000000000
       477       477  CLA       CLA            64.2556049387       64.7862789949       -9.1130575702  IONS      477            -1.0000000000
       478       478  CLA       CLA            -9.7634330484      -64.8334072553      -29.7482778708  IONS      478            -1.0000000000
       479       479  CLA       CLA           -29.9366030365       17.9154290961      -34.7001988189  IONS      479            -1.0000000000
       480       480  CLA       CLA           -45.7861554819      -70.0750357296       42.6878955820  IONS      480            -1.0000000000
       481       481  CLA       CLA           -28.7059116108       31.2860760022       23.4820720235  IONS      481            -1.0000000000
       482       482  CLA       CLA            26.4465862332       44.9026294749       70.7994732799  IONS      482            -1.0000000000
       483       483  CLA       CLA           -26.4283475956       56.5861917208        4.8550890609  IONS      483            -1.0000000000
       484       484  CLA       CLA            69.3942811773      -44.6886623984       20.4035445439  IONS      484            -1.0000000000
       485       485  CLA       CLA           -39.3516324000      -21.0972454000       17.2323197000  IONS      485            -1.0000000000
       486       486  CLA       CLA            45.8061222237      -65.6217391219      -50.3850758887  IONS      486            -1.0000000000
       487       487  CLA       CLA            44.2928827392       55.7567052310        4.5303860495  IONS      487            -1.0000000000
       488       488  CLA       CLA            43.5137098710       47.0201344169      -66.4294328099  IONS      488            -1.0000000000
       489       489  CLA       CLA            34.3872856496       39.6505694052       32.4917008788  IONS      489            -1.0000000000
       490       490  CLA       CLA            52.1602328685       16.3389717938       46.4419783900  IONS      490            -1.0000000000
       491       491  CLA       CLA            23.2138133994      -40.5481476897        5.7312864629  IONS      491            -1.0000000000
       492       492  CLA       CLA            29.7943041000      -67.3673016000       58.6184222000  IONS      492            -1.0000000000
       493       493  CLA       CLA             1.5524175803        2.1655575401       30.9842056798  IONS      493            -1.0000000000
       494       494  CLA       CLA            24.0881309937       11.6754019440       69.1612294096  IONS      494            -1.0000000000
       495       495  CLA       CLA            29.2399979356      -26.2360041494      -52.1922504029  IONS      495            -1.0000000000
       496       496  CLA       CLA            12.9673149621       11.2727430544      -25.4907114768  IONS      496            -1.0000000000
       497       497  CLA       CLA            -7.0473358890      -27.6288733618       23.0261261990  IONS      497            -1.0000000000
       498       498  CLA       CLA           -13.5944484275      -22.9031789262      -27.6036048136  IONS      498            -1.0000000000
       499       499  CLA       CLA           -24.9354313073      -25.0080780668       13.1338789134  IONS      499            -1.0000000000
       500       500  CLA       CLA           -44.5412003230      -26.7407968982       32.8270262111  IONS      500            -1.0000000000
       501       501  CLA       CLA           -35.5402132350      -24.9880557316        7.1949914637  IONS      501            -1.0000000000
       502       502  CLA       CLA             5.4625488021       59.3029642480        3.3164496620  IONS      502            -1.0000000000
       503       503  CLA       CLA           -33.8663547566        6.1665543272      -56.7751852063  IONS      503            -1.0000000000
       504       504  CLA       CLA           -31.5869982181       -4.3955579079      -15.0170752013  IONS      504            -1.0000000000
