;;
;; Generated by CHARMM-GUI FF-Converter
;;
;; Correspondance:
;; jul316@lehigh.edu or wonpil@lehigh.edu
;;
;; The main GROMACS topology file
;;

; Include forcefield parameters
#include "toppar/forcefield.itp"
#include "toppar/PROA.itp"
#include "toppar/PROB.itp"
#include "toppar/FAD.itp"
#include "toppar/LIG.itp"
#include "toppar/POT.itp"
#include "toppar/CLA.itp"
#include "toppar/TIP3.itp"

[ system ]
; Name
Title

[ molecules ]
; Compound	#mols
PROA  	           1
PROB  	           1
FAD   	           2
LIG   	           1
POT   	         248
CLA   	         256
TIP3  	       86885
