       163  EXT
         1         1  GLY       N              -0.6430000000       19.9560000000      -14.0730000000  PROC      1              26.1600000000
         2         1  GLY       CA             -0.3890000000       20.0330000000      -12.6150000000  PROC      1              30.9600000000
         3         1  GLY       C               0.4470000000       18.8250000000      -12.1800000000  PROC      1              33.7600000000
         4         1  GLY       O               1.2160000000       18.3110000000      -13.0060000000  PROC      1              21.3500000000
         5         2  ILE       N               0.2440000000       18.4340000000      -10.9420000000  PROC      2              23.9600000000
         6         2  ILE       CA              1.0030000000       17.2900000000      -10.3930000000  PROC      2              15.3600000000
         7         2  ILE       C               0.9460000000       16.0250000000      -11.1850000000  PROC      2              13.5900000000
         8         2  ILE       O               1.9710000000       15.3590000000      -11.2780000000  PROC      2              17.1900000000
         9         2  ILE       CB              0.4910000000       17.0130000000       -8.9310000000  PROC      2              16.4700000000
        10         2  ILE       CG1             1.5390000000       16.1430000000       -8.1640000000  PROC      2              15.9100000000
        11         2  ILE       CG2            -0.9690000000       16.5330000000       -8.8630000000  PROC      2              17.0600000000
        12         2  ILE       CD              1.0810000000       15.8280000000       -6.7200000000  PROC      2              19.5600000000
        13         3  VAL       N              -0.1790000000       15.6550000000      -11.7860000000  PROC      3              13.5500000000
        14         3  VAL       CA             -0.2780000000       14.4550000000      -12.5910000000  PROC      3              17.5800000000
        15         3  VAL       C               0.5900000000       14.4540000000      -13.8810000000  PROC      3              21.1800000000
        16         3  VAL       O               1.2450000000       13.4510000000      -14.1970000000  PROC      3              19.2600000000
        17         3  VAL       CB             -1.7090000000       14.1360000000      -12.9150000000  PROC      3              26.4900000000
        18         3  VAL       CG1            -1.8080000000       12.8680000000      -13.7450000000  PROC      3              30.7100000000
        19         3  VAL       CG2            -2.5670000000       13.9890000000      -11.6620000000  PROC      3              16.8500000000
        20         4  GLU       N               0.6210000000       15.5900000000      -14.4970000000  PROC      4              24.2300000000
        21         4  GLU       CA              1.4810000000       15.7430000000      -15.6860000000  PROC      4              23.0600000000
        22         4  GLU       C               2.9660000000       15.7440000000      -15.3430000000  PROC      4              19.7800000000
        23         4  GLU       O               3.8050000000       15.1980000000      -16.0610000000  PROC      4              29.3000000000
        24         4  GLU       CB              1.0630000000       17.0590000000      -16.3610000000  PROC      4              24.4300000000
        25         4  GLU       CG             -0.3490000000       16.9000000000      -16.9640000000  PROC      4              19.8700000000
        26         4  GLU       CD             -1.5410000000       17.0240000000      -16.0300000000  PROC      4              27.9300000000
        27         4  GLU       OE1            -2.4290000000       16.1690000000      -16.2110000000  PROC      4              37.0800000000
        28         4  GLU       OE2            -1.5270000000       17.9670000000      -15.1810000000  PROC      4              27.9200000000
        29         5  GLN       N               3.2890000000       16.3860000000      -14.2360000000  PROC      5              17.9000000000
        30         5  GLN       CA              4.6950000000       16.4450000000      -13.8000000000  PROC      5              17.9000000000
        31         5  GLN       C               5.2060000000       15.1040000000      -13.3070000000  PROC      5              23.6200000000
        32         5  GLN       O               6.3310000000       14.6840000000      -13.5780000000  PROC      5              26.2500000000
        33         5  GLN       CB              4.8200000000       17.5530000000      -12.7800000000  PROC      5              22.6400000000
        34         5  GLN       CG              4.3730000000       18.9690000000      -13.1990000000  PROC      5              32.5600000000
        35         5  GLN       CD              5.4050000000       19.7550000000      -12.4040000000  PROC      5              59.8500000000
        36         5  GLN       OE1             6.4780000000       19.9790000000      -12.9470000000  PROC      5              50.2200000000
        37         5  GLN       NE2             4.9760000000       19.9400000000      -11.1480000000  PROC      5              56.4600000000
        38         6  CYS       N               4.3860000000       14.4080000000      -12.5140000000  PROC      6              20.4500000000
        39         6  CYS       CA              4.9490000000       13.1660000000      -11.9210000000  PROC      6              20.9500000000
        40         6  CYS       C               4.4720000000       11.8750000000      -12.4360000000  PROC      6              18.6700000000
        41         6  CYS       O               5.1270000000       10.8510000000      -12.2930000000  PROC      6              17.9800000000
        42         6  CYS       CB              4.7320000000       13.2640000000      -10.3540000000  PROC      6              16.7600000000
        43         6  CYS       SG              5.4160000000       14.7190000000       -9.5090000000  PROC      6              20.0000000000
        44         7  CYS       N               3.3470000000       11.8020000000      -13.0630000000  PROC      7              15.9300000000
        45         7  CYS       CA              2.8580000000       10.5150000000      -13.6120000000  PROC      7              10.3100000000
        46         7  CYS       C               3.0900000000       10.4220000000      -15.1120000000  PROC      7              27.3400000000
        47         7  CYS       O               3.6010000000        9.4550000000      -15.6030000000  PROC      7              24.7700000000
        48         7  CYS       CB              1.3480000000       10.3320000000      -13.3290000000  PROC      7              17.6000000000
        49         7  CYS       SG              0.6020000000        8.8990000000      -13.9760000000  PROC      7              19.3000000000
        50         8  THR       N               2.6910000000       11.3950000000      -15.8980000000  PROC      8              22.3100000000
        51         8  THR       CA              2.9120000000       11.3560000000      -17.3820000000  PROC      8              20.2200000000
        52         8  THR       C               4.4080000000       11.5080000000      -17.6410000000  PROC      8              29.2400000000
        53         8  THR       O               5.0510000000       10.7160000000      -18.3570000000  PROC      8              25.2700000000
        54         8  THR       CB              1.9930000000       12.4870000000      -17.9970000000  PROC      8              28.7600000000
        55         8  THR       OG1             0.5900000000       12.0710000000      -17.8680000000  PROC      8              41.9300000000
        56         8  THR       CG2             2.5360000000       12.7950000000      -19.3700000000  PROC      8              39.1000000000
        57         9  SER       N               4.9570000000       12.5490000000      -16.9690000000  PROC      9              23.0400000000
        58         9  SER       CA              6.4380000000       12.7830000000      -17.0310000000  PROC      9              23.8100000000
        59         9  SER       C               7.0380000000       12.1040000000      -15.7960000000  PROC      9              22.9700000000
        60         9  SER       O               6.5050000000       11.0800000000      -15.3510000000  PROC      9              28.3600000000
        61         9  SER       CB              6.8380000000       14.2490000000      -17.2580000000  PROC      9              22.9600000000
        62         9  SER       OG              8.2660000000       14.5230000000      -17.3190000000  PROC      9              30.9600000000
        63        10  ILE       N               8.1570000000       12.5320000000      -15.2740000000  PROC      10             18.4800000000
        64        10  ILE       CA              8.8200000000       12.0680000000      -14.1160000000  PROC      10             14.1800000000
        65        10  ILE       C               9.1620000000       13.2680000000      -13.2170000000  PROC      10             22.0600000000
        66        10  ILE       O               9.3980000000       14.3360000000      -13.8070000000  PROC      10             21.3700000000
        67        10  ILE       CB             10.0820000000       11.2190000000      -14.2960000000  PROC      10             14.2700000000
        68        10  ILE       CG1            11.1680000000       12.0580000000      -14.9410000000  PROC      10             17.0500000000
        69        10  ILE       CG2             9.7710000000        9.9010000000      -15.0750000000  PROC      10             23.1200000000
        70        10  ILE       CD             12.4470000000       11.2500000000      -15.1810000000  PROC      10             28.8600000000
        71        11  CYS       N               9.1580000000       13.0010000000      -11.8970000000  PROC      11             17.7300000000
        72        11  CYS       CA              9.4880000000       14.1780000000      -11.0630000000  PROC      11             13.6300000000
        73        11  CYS       C              10.3010000000       13.7330000000       -9.8690000000  PROC      11             24.1200000000
        74        11  CYS       O              10.2380000000       12.5180000000       -9.5950000000  PROC      11             27.6300000000
        75        11  CYS       CB              8.2840000000       14.9340000000      -10.5010000000  PROC      11             24.4700000000
        76        11  CYS       SG              7.3240000000       13.9710000000       -9.3010000000  PROC      11             22.6000000000
        77        12  SER       N              10.9410000000       14.6820000000       -9.2410000000  PROC      12             20.6400000000
        78        12  SER       CA             11.7390000000       14.4340000000       -8.0950000000  PROC      12             19.8900000000
        79        12  SER       C              10.9780000000       14.6120000000       -6.7840000000  PROC      12             26.4900000000
        80        12  SER       O               9.9250000000       15.2410000000       -6.8430000000  PROC      12             17.9400000000
        81        12  SER       CB             12.8960000000       15.4780000000       -7.9110000000  PROC      12             22.1300000000
        82        12  SER       OG             12.2800000000       16.7370000000       -7.8890000000  PROC      12             25.5500000000
        83        13  LEU       N              11.5220000000       14.1650000000       -5.6540000000  PROC      13             20.9200000000
        84        13  LEU       CA             10.8270000000       14.3920000000       -4.4220000000  PROC      13             18.5900000000
        85        13  LEU       C              10.8110000000       15.8600000000       -4.0990000000  PROC      13             17.6200000000
        86        13  LEU       O               9.8650000000       16.3110000000       -3.4270000000  PROC      13             17.5600000000
        87        13  LEU       CB             11.4510000000       13.6160000000       -3.2610000000  PROC      13             24.5400000000
        88        13  LEU       CG             11.6200000000       12.1370000000       -3.4750000000  PROC      13             37.6000000000
        89        13  LEU       CD1            12.3860000000       11.5860000000       -2.2730000000  PROC      13             42.9400000000
        90        13  LEU       CD2            10.2090000000       11.5620000000       -3.6280000000  PROC      13             33.1300000000
        91        14  TYR       N              11.7560000000       16.6420000000       -4.5380000000  PROC      14             19.3900000000
        92        14  TYR       CA             11.7560000000       18.0530000000       -4.2530000000  PROC      14             15.8100000000
        93        14  TYR       C              10.6320000000       18.6650000000       -4.9770000000  PROC      14             16.4900000000
        94        14  TYR       O              10.0980000000       19.6730000000       -4.5170000000  PROC      14             24.3100000000
        95        14  TYR       CB             13.0610000000       18.7920000000       -4.6980000000  PROC      14             23.4200000000
        96        14  TYR       CG             14.2440000000       18.3340000000       -3.8840000000  PROC      14             22.6800000000
        97        14  TYR       CD1            14.4060000000       18.9260000000       -2.6430000000  PROC      14             37.4300000000
        98        14  TYR       CD2            15.0650000000       17.2940000000       -4.3210000000  PROC      14             44.5200000000
        99        14  TYR       CE1            15.4690000000       18.4550000000       -1.8060000000  PROC      14             35.1800000000
       100        14  TYR       CE2            16.1380000000       16.8370000000       -3.5580000000  PROC      14             39.1300000000
       101        14  TYR       CZ             16.3050000000       17.4400000000       -2.3040000000  PROC      14             43.2400000000
       102        14  TYR       OH             17.3250000000       17.0670000000       -1.4720000000  PROC      14             40.0900000000
       103        15  GLN       N              10.2860000000       18.1890000000       -6.1560000000  PROC      15             16.4400000000
       104        15  GLN       CA              9.1750000000       18.7060000000       -6.9080000000  PROC      15             13.8700000000
       105        15  GLN       C               7.9400000000       18.4020000000       -6.1080000000  PROC      15             16.4500000000
       106        15  GLN       O               7.0420000000       19.2280000000       -6.0470000000  PROC      15             17.7400000000
       107        15  GLN       CB              9.0210000000       18.2020000000       -8.3780000000  PROC      15             19.8300000000
       108        15  GLN       CG             10.0450000000       18.6950000000       -9.3680000000  PROC      15             27.5000000000
       109        15  GLN       CD             10.0020000000       18.1650000000      -10.7710000000  PROC      15             46.4600000000
       110        15  GLN       OE1            10.4590000000       17.0570000000      -11.0400000000  PROC      15             43.3200000000
       111        15  GLN       NE2             9.4560000000       18.8890000000      -11.7610000000  PROC      15             35.3800000000
       112        16  LEU       N               7.8410000000       17.2450000000       -5.4910000000  PROC      16             18.4700000000
       113        16  LEU       CA              6.5800000000       16.9840000000       -4.7830000000  PROC      16             17.1800000000
       114        16  LEU       C               6.3110000000       17.9040000000       -3.5870000000  PROC      16             21.3600000000
       115        16  LEU       O               5.1950000000       18.0690000000       -3.0790000000  PROC      16             17.3400000000
       116        16  LEU       CB              6.5420000000       15.5270000000       -4.2270000000  PROC      16             17.1500000000
       117        16  LEU       CG              6.5000000000       14.5200000000       -5.3410000000  PROC      16             17.5300000000
       118        16  LEU       CD1             6.4770000000       13.2270000000       -4.5930000000  PROC      16             22.8200000000
       119        16  LEU       CD2             5.1170000000       14.4930000000       -5.9910000000  PROC      16             18.3300000000
       120        17  GLU       N               7.3890000000       18.4270000000       -3.0400000000  PROC      17             16.4700000000
       121        17  GLU       CA              7.3530000000       19.3190000000       -1.9590000000  PROC      17             10.9300000000
       122        17  GLU       C               6.6140000000       20.6010000000       -2.2820000000  PROC      17             11.2000000000
       123        17  GLU       O               6.1830000000       21.3100000000       -1.3860000000  PROC      17             13.6900000000
       124        17  GLU       CB              8.7510000000       19.8000000000       -1.5840000000  PROC      17             16.9900000000
       125        17  GLU       CG              9.1780000000       18.9800000000       -0.4080000000  PROC      17             22.6900000000
       126        17  GLU       CD             10.3970000000       19.5240000000        0.2690000000  PROC      17             26.3800000000
       127        17  GLU       OE1            11.2700000000       20.0130000000       -0.3420000000  PROC      17             26.4200000000
       128        17  GLU       OE2            10.3580000000       19.2910000000        1.4700000000  PROC      17             30.6800000000
       129        18  ASN       N               6.4660000000       20.8440000000       -3.5750000000  PROC      18             13.4200000000
       130        18  ASN       CA              5.7070000000       22.0100000000       -4.0060000000  PROC      18             12.9100000000
       131        18  ASN       C               4.2380000000       21.8790000000       -3.6830000000  PROC      18             14.9600000000
       132        18  ASN       O               3.5060000000       22.8870000000       -3.6980000000  PROC      18             17.7200000000
       133        18  ASN       CB              5.8940000000       22.2790000000       -5.5060000000  PROC      18             16.6200000000
       134        18  ASN       CG              7.2860000000       22.7550000000       -5.8840000000  PROC      18             20.6400000000
       135        18  ASN       OD1             7.7610000000       22.3750000000       -6.9270000000  PROC      18             28.4100000000
       136        18  ASN       ND2             7.8360000000       23.5400000000       -4.9990000000  PROC      18             26.5300000000
       137        19  TYR       N               3.6830000000       20.7170000000       -3.4200000000  PROC      19             10.4200000000
       138        19  TYR       CA              2.3150000000       20.4890000000       -3.1100000000  PROC      19             11.4400000000
       139        19  TYR       C               2.0350000000       20.2840000000       -1.6410000000  PROC      19             19.2200000000
       140        19  TYR       O               0.8840000000       20.0080000000       -1.3300000000  PROC      19             14.5200000000
       141        19  TYR       CB              1.7450000000       19.3420000000       -3.9380000000  PROC      19             13.8900000000
       142        19  TYR       CG              1.9950000000       19.5790000000       -5.3940000000  PROC      19             13.1500000000
       143        19  TYR       CD1             1.1760000000       20.3600000000       -6.1850000000  PROC      19             15.8500000000
       144        19  TYR       CD2             3.1010000000       19.0220000000       -6.0040000000  PROC      19             20.1800000000
       145        19  TYR       CE1             1.4820000000       20.5900000000       -7.5260000000  PROC      19             15.8000000000
       146        19  TYR       CE2             3.4270000000       19.2570000000       -7.3420000000  PROC      19             20.9400000000
       147        19  TYR       CZ              2.6000000000       20.0770000000       -8.1110000000  PROC      19             16.0700000000
       148        19  TYR       OH              2.9300000000       20.1980000000       -9.4380000000  PROC      19             28.2000000000
       149        20  CYS       N               2.9970000000       20.5230000000       -0.7790000000  PROC      20             15.8500000000
       150        20  CYS       CA              2.8160000000       20.5150000000        0.6600000000  PROC      20             12.7500000000
       151        20  CYS       C               2.1670000000       21.8480000000        1.0800000000  PROC      20             18.2900000000
       152        20  CYS       O               2.4240000000       22.8420000000        0.4490000000  PROC      20             26.6300000000
       153        20  CYS       CB              4.1160000000       20.3290000000        1.4650000000  PROC      20             12.0200000000
       154        20  CYS       SG              5.1090000000       18.9250000000        1.0790000000  PROC      20             13.7000000000
       155        21  ASN       N               1.3960000000       21.8990000000        2.1680000000  PROC      21             17.1400000000
       156        21  ASN       CA              0.8140000000       23.1520000000        2.6770000000  PROC      21             22.1800000000
       157        21  ASN       C               1.8790000000       23.6500000000        3.6810000000  PROC      21             31.4600000000
       158        21  ASN       O               2.9370000000       22.9910000000        3.8360000000  PROC      21             44.7700000000
       159        21  ASN       CB             -0.4330000000       22.7570000000        3.3870000000  PROC      21             21.6700000000
       160        21  ASN       CG             -1.6360000000       22.1660000000        2.7420000000  PROC      21             29.1700000000
       161        21  ASN       OD1            -2.0620000000       22.4680000000        1.6470000000  PROC      21             33.6300000000
       162        21  ASN       ND2            -2.2420000000       21.2770000000        3.5910000000  PROC      21             33.2100000000
       163        21  ASN       OXT             1.5750000000       24.5850000000        4.3980000000  PROC      21             52.3800000000
