       163  EXT
         1         1  GLY       N              -8.8630000000       16.9440000000       14.2890000000  PROA      1              21.8800000000
         2         1  GLY       CA             -9.9290000000       17.0260000000       13.2440000000  PROA      1              22.8500000000
         3         1  GLY       C             -10.0510000000       15.6250000000       12.6180000000  PROA      1              43.9200000000
         4         1  GLY       O              -9.7820000000       14.7280000000       13.4070000000  PROA      1              25.2200000000
         5         2  ILE       N             -10.3330000000       15.5310000000       11.3320000000  PROA      2              26.2800000000
         6         2  ILE       CA            -10.4880000000       14.2660000000       10.6000000000  PROA      2              20.8400000000
         7         2  ILE       C              -9.3670000000       13.3020000000       10.6580000000  PROA      2              11.8100000000
         8         2  ILE       O              -9.5800000000       12.0920000000       10.9690000000  PROA      2              20.3100000000
         9         2  ILE       CB            -10.8830000000       14.4930000000        9.0950000000  PROA      2              40.0000000000
        10         2  ILE       CG1           -11.5790000000       13.1460000000        8.6970000000  PROA      2              36.7400000000
        11         2  ILE       CG2            -9.7410000000       14.7940000000        8.1400000000  PROA      2              23.0200000000
        12         2  ILE       CD            -12.8130000000       13.0310000000        9.6400000000  PROA      2              26.6900000000
        13         3  VAL       N              -8.1330000000       13.7590000000       10.4830000000  PROA      3              16.5700000000
        14         3  VAL       CA             -6.9660000000       12.9010000000       10.5760000000  PROA      3              15.7500000000
        15         3  VAL       C              -6.8920000000       12.1610000000       11.9220000000  PROA      3              22.0900000000
        16         3  VAL       O              -6.5470000000       10.9900000000       12.0370000000  PROA      3              24.5200000000
        17         3  VAL       CB             -5.6970000000       13.7080000000       10.2250000000  PROA      3              21.3400000000
        18         3  VAL       CG1            -4.3820000000       12.9600000000       10.4480000000  PROA      3              32.4800000000
        19         3  VAL       CG2            -5.8420000000       14.2090000000        8.7770000000  PROA      3              26.3500000000
        20         4  GLU       N              -7.0430000000       13.0190000000       12.9350000000  PROA      4              16.5800000000
        21         4  GLU       CA             -6.8890000000       12.4740000000       14.2950000000  PROA      4              15.3200000000
        22         4  GLU       C              -8.0040000000       11.5580000000       14.6100000000  PROA      4              16.8800000000
        23         4  GLU       O              -7.8880000000       10.4740000000       15.1280000000  PROA      4              23.3000000000
        24         4  GLU       CB             -6.8090000000       13.6910000000       15.2660000000  PROA      4              17.1100000000
        25         4  GLU       CG             -5.6150000000       14.5650000000       14.9510000000  PROA      4              21.4500000000
        26         4  GLU       CD             -5.7040000000       15.4570000000       13.7350000000  PROA      4              21.5900000000
        27         4  GLU       OE1            -6.7570000000       15.9590000000       13.3770000000  PROA      4              23.4300000000
        28         4  GLU       OE2            -4.5680000000       15.5690000000       13.1790000000  PROA      4              25.3600000000
        29         5  GLN       N              -9.1990000000       12.0480000000       14.3560000000  PROA      5              15.6900000000
        30         5  GLN       CA            -10.4070000000       11.2990000000       14.6300000000  PROA      5              12.3800000000
        31         5  GLN       C             -10.4310000000        9.9400000000       13.9800000000  PROA      5              19.8600000000
        32         5  GLN       O             -10.8150000000        8.9310000000       14.5420000000  PROA      5              16.8300000000
        33         5  GLN       CB            -11.5940000000       12.1300000000       14.1520000000  PROA      5              21.1300000000
        34         5  GLN       CG            -12.8600000000       11.3740000000       14.5610000000  PROA      5              22.0600000000
        35         5  GLN       CD            -13.9460000000       11.9010000000       13.6340000000  PROA      5              42.0200000000
        36         5  GLN       OE1           -13.9080000000       13.0270000000       13.1690000000  PROA      5              55.1000000000
        37         5  GLN       NE2           -14.9430000000       11.0300000000       13.3510000000  PROA      5              27.2700000000
        38         6  CYS       N             -10.0330000000        9.8150000000       12.6950000000  PROA      6              13.1900000000
        39         6  CYS       CA            -10.0500000000        8.5180000000       12.0650000000  PROA      6              12.6300000000
        40         6  CYS       C              -9.1050000000        7.5200000000       12.6670000000  PROA      6               9.9500000000
        41         6  CYS       O              -9.3950000000        6.2880000000       12.6660000000  PROA      6              14.2200000000
        42         6  CYS       CB             -9.6600000000        8.6730000000       10.5590000000  PROA      6              12.5400000000
        43         6  CYS       SG            -10.9250000000        9.4590000000        9.5790000000  PROA      6              13.0000000000
        44         7  CYS       N              -8.0180000000        7.9920000000       13.1710000000  PROA      7              10.8400000000
        45         7  CYS       CA             -6.9640000000        7.1860000000       13.8080000000  PROA      7              17.0200000000
        46         7  CYS       C              -7.2360000000        6.9480000000       15.3580000000  PROA      7              13.7100000000
        47         7  CYS       O              -7.0610000000        5.7820000000       15.7680000000  PROA      7              19.2800000000
        48         7  CYS       CB             -5.5780000000        7.8260000000       13.6560000000  PROA      7              20.2400000000
        49         7  CYS       SG             -4.1810000000        6.8190000000       14.1340000000  PROA      7              13.8000000000
        50         8  THR       N              -7.6550000000        7.9370000000       16.0580000000  PROA      8              12.5700000000
        51         8  THR       CA             -7.8620000000        7.7320000000       17.5200000000  PROA      8              19.9900000000
        52         8  THR       C              -9.1430000000        6.9970000000       17.8700000000  PROA      8              26.3400000000
        53         8  THR       O              -9.1890000000        6.1570000000       18.7950000000  PROA      8              25.4300000000
        54         8  THR       CB             -7.7280000000        9.0550000000       18.3860000000  PROA      8              20.7700000000
        55         8  THR       OG1            -8.8890000000        9.9180000000       18.1170000000  PROA      8              26.7600000000
        56         8  THR       CG2            -6.3340000000        9.7000000000       18.1960000000  PROA      8              26.5000000000
        57         9  SER       N             -10.1700000000        7.3500000000       17.0580000000  PROA      9              20.0100000000
        58         9  SER       CA            -11.5090000000        6.8030000000       17.1210000000  PROA      9              16.8800000000
        59         9  SER       C             -11.7960000000        5.9810000000       15.8560000000  PROA      9              12.7000000000
        60         9  SER       O             -11.1390000000        5.0100000000       15.4730000000  PROA      9              17.6000000000
        61         9  SER       CB            -12.3310000000        8.0670000000       17.4390000000  PROA      9              19.5200000000
        62         9  SER       OG            -13.6740000000        7.7740000000       17.6500000000  PROA      9              32.3400000000
        63        10  ILE       N             -12.8830000000        6.3820000000       15.1590000000  PROA      10             15.3400000000
        64        10  ILE       CA            -13.3500000000        5.7230000000       13.9320000000  PROA      10             20.2300000000
        65        10  ILE       C             -13.9690000000        6.9020000000       13.1060000000  PROA      10             17.5000000000
        66        10  ILE       O             -14.3550000000        7.9220000000       13.6230000000  PROA      10             16.6000000000
        67        10  ILE       CB            -14.3660000000        4.5240000000       14.0470000000  PROA      10             19.3900000000
        68        10  ILE       CG1           -15.7020000000        4.8740000000       14.7420000000  PROA      10             22.0500000000
        69        10  ILE       CG2           -13.7110000000        3.3000000000       14.7230000000  PROA      10             23.3000000000
        70        10  ILE       CD            -16.7020000000        3.7220000000       15.0050000000  PROA      10             42.1100000000
        71        11  CYS       N             -14.0800000000        6.6850000000       11.7670000000  PROA      11             12.1400000000
        72        11  CYS       CA            -14.6650000000        7.6790000000       10.8800000000  PROA      11             11.2400000000
        73        11  CYS       C             -15.3010000000        6.8810000000        9.7660000000  PROA      11             12.1700000000
        74        11  CYS       O             -14.9620000000        5.6920000000        9.5280000000  PROA      11             21.1400000000
        75        11  CYS       CB            -13.6950000000        8.7020000000       10.4170000000  PROA      11             13.0300000000
        76        11  CYS       SG            -12.3750000000        8.0190000000        9.3850000000  PROA      11             13.6000000000
        77        12  SER       N             -16.2330000000        7.5570000000        9.0950000000  PROA      12             11.3700000000
        78        12  SER       CA            -16.9990000000        6.9780000000        8.0050000000  PROA      12              9.9100000000
        79        12  SER       C             -16.5630000000        7.6440000000        6.7260000000  PROA      12              7.4000000000
        80        12  SER       O             -15.9670000000        8.7530000000        6.7110000000  PROA      12              9.6700000000
        81        12  SER       CB            -18.5160000000        7.1830000000        8.0840000000  PROA      12             16.6400000000
        82        12  SER       OG            -18.8690000000        8.5430000000        7.8810000000  PROA      12             17.1400000000
        83        13  LEU       N             -16.8520000000        6.9140000000        5.6120000000  PROA      13             11.3500000000
        84        13  LEU       CA            -16.5300000000        7.4440000000        4.2590000000  PROA      13             11.3500000000
        85        13  LEU       C             -17.3170000000        8.7150000000        4.0300000000  PROA      13             12.5500000000
        86        13  LEU       O             -16.8350000000        9.5210000000        3.2260000000  PROA      13             11.7800000000
        87        13  LEU       CB            -16.7740000000        6.3480000000        3.2320000000  PROA      13             11.6600000000
        88        13  LEU       CG            -15.9400000000        5.0460000000        3.3160000000  PROA      13             18.1200000000
        89        13  LEU       CD1           -16.0500000000        4.1970000000        2.0180000000  PROA      13             18.7600000000
        90        13  LEU       CD2           -14.4710000000        5.3200000000        3.5370000000  PROA      13             17.2600000000
        91        14  TYR       N             -18.4910000000        8.7900000000        4.6290000000  PROA      14             10.8400000000
        92        14  TYR       CA            -19.2820000000       10.0350000000        4.3680000000  PROA      14             10.7500000000
        93        14  TYR       C             -18.6390000000       11.2280000000        4.9630000000  PROA      14             12.8100000000
        94        14  TYR       O             -18.7060000000       12.2980000000        4.3410000000  PROA      14             15.1100000000
        95        14  TYR       CB            -20.7460000000        9.9000000000        4.7990000000  PROA      14             12.9000000000
        96        14  TYR       CG            -21.4630000000        8.7640000000        4.0790000000  PROA      14             18.2300000000
        97        14  TYR       CD1           -22.1100000000        9.1230000000        2.8910000000  PROA      14             18.9500000000
        98        14  TYR       CD2           -21.4610000000        7.4400000000        4.4750000000  PROA      14             15.4200000000
        99        14  TYR       CE1           -22.7670000000        8.1670000000        2.0860000000  PROA      14             18.1500000000
       100        14  TYR       CE2           -22.1180000000        6.4360000000        3.6760000000  PROA      14             14.3100000000
       101        14  TYR       CZ            -22.7380000000        6.8560000000        2.5560000000  PROA      14             15.4700000000
       102        14  TYR       OH            -23.4360000000        5.9260000000        1.7160000000  PROA      14             24.8600000000
       103        15  GLN       N             -17.9450000000       11.1000000000        6.0910000000  PROA      15              9.6300000000
       104        15  GLN       CA            -17.1780000000       12.1380000000        6.7740000000  PROA      15              9.4000000000
       105        15  GLN       C             -16.0120000000       12.5430000000        5.9000000000  PROA      15             10.5200000000
       106        15  GLN       O             -15.6110000000       13.7170000000        5.7220000000  PROA      15             14.2500000000
       107        15  GLN       CB            -16.7740000000       11.8410000000        8.2050000000  PROA      15             13.8900000000
       108        15  GLN       CG            -17.8940000000       11.6680000000        9.2060000000  PROA      15             17.5300000000
       109        15  GLN       CD            -17.5240000000       11.0560000000       10.5150000000  PROA      15             28.2100000000
       110        15  GLN       OE1           -16.8650000000       10.0270000000       10.5980000000  PROA      15             20.1400000000
       111        15  GLN       NE2           -17.9940000000       11.6500000000       11.6240000000  PROA      15             30.2500000000
       112        16  LEU       N             -15.3520000000       11.5250000000        5.3250000000  PROA      16             12.9900000000
       113        16  LEU       CA            -14.1850000000       11.8260000000        4.4700000000  PROA      16             11.1900000000
       114        16  LEU       C             -14.6050000000       12.6340000000        3.2490000000  PROA      16             15.5400000000
       115        16  LEU       O             -13.7670000000       13.3980000000        2.7450000000  PROA      16             16.0100000000
       116        16  LEU       CB            -13.5880000000       10.5210000000        4.0600000000  PROA      16             12.6700000000
       117        16  LEU       CG            -12.9540000000        9.7170000000        5.1820000000  PROA      16             13.0700000000
       118        16  LEU       CD1           -12.1150000000        8.5710000000        4.6020000000  PROA      16             16.6100000000
       119        16  LEU       CD2           -12.0410000000       10.5590000000        6.0280000000  PROA      16             16.5000000000
       120        17  GLU       N             -15.7790000000       12.4200000000        2.7590000000  PROA      17             17.5000000000
       121        17  GLU       CA            -16.2230000000       13.1790000000        1.5890000000  PROA      17             17.7200000000
       122        17  GLU       C             -16.1710000000       14.6930000000        1.8110000000  PROA      17             19.2100000000
       123        17  GLU       O             -16.1180000000       15.4660000000        0.8030000000  PROA      17             18.4800000000
       124        17  GLU       CB            -17.6450000000       12.8620000000        1.2150000000  PROA      17             17.3800000000
       125        17  GLU       CG            -17.8850000000       11.6290000000        0.3600000000  PROA      17             27.9700000000
       126        17  GLU       CD            -19.2250000000       11.6670000000       -0.3910000000  PROA      17             26.7000000000
       127        17  GLU       OE1           -20.2010000000       11.4660000000        0.2760000000  PROA      17             29.9300000000
       128        17  GLU       OE2           -19.1270000000       11.8730000000       -1.6430000000  PROA      17             34.6600000000
       129        18  ASN       N             -16.0940000000       15.0740000000        3.1040000000  PROA      18             15.1000000000
       130        18  ASN       CA            -16.0290000000       16.5340000000        3.3320000000  PROA      18             18.8500000000
       131        18  ASN       C             -14.7030000000       17.1310000000        2.9540000000  PROA      18             18.4600000000
       132        18  ASN       O             -14.5450000000       18.3770000000        2.8340000000  PROA      18             19.6800000000
       133        18  ASN       CB            -16.4890000000       16.9340000000        4.7380000000  PROA      18             20.6600000000
       134        18  ASN       CG            -17.8680000000       16.3380000000        5.1420000000  PROA      18             29.7900000000
       135        18  ASN       OD1           -18.8130000000       16.0530000000        4.3820000000  PROA      18             34.4800000000
       136        18  ASN       ND2           -17.9910000000       16.1680000000        6.4520000000  PROA      18             36.0000000000
       137        19  TYR       N             -13.6970000000       16.3270000000        2.7380000000  PROA      19             15.6800000000
       138        19  TYR       CA            -12.3580000000       16.7240000000        2.3800000000  PROA      19             14.1900000000
       139        19  TYR       C             -12.1540000000       16.6950000000        0.8990000000  PROA      19             13.2000000000
       140        19  TYR       O             -11.0100000000       17.0380000000        0.4800000000  PROA      19             16.1200000000
       141        19  TYR       CB            -11.3640000000       15.8400000000        3.1780000000  PROA      19             14.3500000000
       142        19  TYR       CG            -11.5860000000       16.2230000000        4.6340000000  PROA      19             21.2400000000
       143        19  TYR       CD1           -10.8530000000       17.3000000000        5.1290000000  PROA      19             26.6100000000
       144        19  TYR       CD2           -12.5620000000       15.7030000000        5.4450000000  PROA      19             19.2100000000
       145        19  TYR       CE1           -11.0840000000       17.8010000000        6.3930000000  PROA      19             27.8000000000
       146        19  TYR       CE2           -12.8330000000       16.2070000000        6.7140000000  PROA      19             23.9800000000
       147        19  TYR       CZ            -12.0810000000       17.2670000000        7.1870000000  PROA      19             34.0800000000
       148        19  TYR       OH            -12.2270000000       17.8490000000        8.4000000000  PROA      19             37.9600000000
       149        20  CYS       N             -13.0570000000       16.3130000000        0.0770000000  PROA      20             13.0500000000
       150        20  CYS       CA            -12.8380000000       16.3090000000       -1.3890000000  PROA      20             18.6900000000
       151        20  CYS       C             -12.9840000000       17.7990000000       -1.8020000000  PROA      20             19.0900000000
       152        20  CYS       O             -13.5880000000       18.5790000000       -1.0840000000  PROA      20             19.3100000000
       153        20  CYS       CB            -13.8500000000       15.4900000000       -2.1570000000  PROA      20             15.9900000000
       154        20  CYS       SG            -13.9230000000       13.7610000000       -1.5840000000  PROA      20             12.9000000000
       155        21  ASN       N             -12.3800000000       18.0630000000       -2.9090000000  PROA      21             17.6300000000
       156        21  ASN       CA            -12.4040000000       19.3990000000       -3.6080000000  PROA      21             25.2300000000
       157        21  ASN       C             -13.6420000000       19.6960000000       -4.4470000000  PROA      21             34.8200000000
       158        21  ASN       O             -14.1460000000       18.7030000000       -4.9560000000  PROA      21             31.2400000000
       159        21  ASN       CB            -11.2280000000       19.3920000000       -4.5210000000  PROA      21             19.0600000000
       160        21  ASN       CG            -10.0200000000       20.2830000000       -4.4560000000  PROA      21             40.7100000000
       161        21  ASN       OD1           -10.0670000000       21.3800000000       -5.0830000000  PROA      21             68.2200000000
       162        21  ASN       ND2            -9.0040000000       19.6670000000       -3.8080000000  PROA      21             39.6900000000
       163        21  ASN       OXT           -13.8810000000       20.8900000000       -4.6040000000  PROA      21             41.8300000000
