; 100 ps NVT equilibration at 300 K, heavy atoms of protein+ligand restrained
define          = -DPOSRES -DPOSRES_LIG
integrator      = md
dt              = 0.002
nsteps          = 50000         ; 100 ps
nstxout-compressed = 5000
nstlog          = 5000
nstenergy       = 5000

continuation    = no
constraint_algorithm = lincs
constraints     = h-bonds
lincs_iter      = 1
lincs_order     = 4

cutoff-scheme   = Verlet
coulombtype     = PME
pme_order       = 4
fourierspacing  = 0.12
rcoulomb        = 1.2
rvdw            = 1.2
vdw-modifier    = force-switch
rvdw-switch     = 1.0
DispCorr        = no            ; not used with force-switch in CHARMM36

tcoupl          = V-rescale
tc-grps         = Protein_LIG Water_and_ions
tau_t           = 0.1   0.1
ref_t           = 300   300
pcoupl          = no

pbc             = xyz
gen_vel         = yes
gen_temp        = 300
gen_seed        = -1
