; Topology file generated by 
; CHARMM General Force Field (CGenFF) program version 4.0
; For use with CGenFF topology and parameter files version 5.0
; Generated on 2026-09-16 20:52:25 (user = unknown)
;
; Include forcefield parameters
#include "./charmm36.ff/forcefield.itp"
;
; Include ligand specific parameters
# include "./charmm36.ff/lig_ffbonded.itp"
;
[ moleculetype ]
; Name            nrexcl
LIG                 3
;
[ atoms ]
;   nr       type  resnr residue  atom   cgnr     charge       mass  typeB    chargeB      massB
; residue   1 lig rtp lig  q +0.0
     1     CG2DC1      1    lig     C1      1     -0.168     12.011   ; qtot -0.168
     2     CG2D1O      1    lig     C2      2      0.202     12.011   ; qtot 0.202
     3      OG311      1    lig     O3      3     -0.374    15.9994   ; qtot -0.374
     4      CG2O5      1    lig     C4      4      0.087     12.011   ; qtot 0.087
     5      OG2D3      1    lig     O5      5     -0.387    15.9994   ; qtot -0.387
     6     CG2R61      1    lig     C6      6      0.269     12.011   ; qtot 0.269
     7     CG2R61      1    lig     C7      7     -0.116     12.011   ; qtot -0.116
     8     CG2R61      1    lig     C8      8     -0.111     12.011   ; qtot -0.111
     9     CG2R61      1    lig     C9      9     -0.111     12.011   ; qtot -0.111
    10     CG2R61      1    lig    C10     10     -0.116     12.011   ; qtot -0.116
    11     CG2R61      1    lig    C11     11      0.204     12.011   ; qtot 0.204
    12      CG2O5      1    lig    C12     12       0.34     12.011   ; qtot 0.34
    13      OG2D3      1    lig    O13     13     -0.437    15.9994   ; qtot -0.437
    14      CG321      1    lig    C14     14     -0.224     12.011   ; qtot -0.224
    15      CG331      1    lig    C15     15     -0.267     12.011   ; qtot -0.267
    16      CG2D1      1    lig    C16     16      0.006     12.011   ; qtot 0.006
    17      CG331      1    lig    C17     17     -0.267     12.011   ; qtot -0.267
    18      CG2D1      1    lig    C18     18     -0.221     12.011   ; qtot -0.221
    19       HGP1      1    lig    H19     19      0.357      1.008   ; qtot 0.357
    20      HGR61      1    lig    H20     20      0.116      1.008   ; qtot 0.116
    21      HGR61      1    lig    H21     21      0.116      1.008   ; qtot 0.116
    22      HGR61      1    lig    H22     22      0.116      1.008   ; qtot 0.116
    23      HGR61      1    lig    H23     23      0.116      1.008   ; qtot 0.116
    24       HGA2      1    lig    H24     24       0.09      1.008   ; qtot 0.09
    25       HGA2      1    lig    H25     25       0.09      1.008   ; qtot 0.09
    26       HGA3      1    lig    H26     26       0.09      1.008   ; qtot 0.09
    27       HGA3      1    lig    H27     27       0.09      1.008   ; qtot 0.09
    28       HGA3      1    lig    H28     28       0.09      1.008   ; qtot 0.09
    29       HGA3      1    lig    H29     29       0.09      1.008   ; qtot 0.09
    30       HGA3      1    lig    H30     30       0.09      1.008   ; qtot 0.09
    31       HGA3      1    lig    H31     31       0.09      1.008   ; qtot 0.09
    32       HGA4      1    lig    H32     32       0.15      1.008   ; qtot 0.15

[ bonds ]
;  ai    aj funct            c0            c1            c2            c3
    1     2     1
    1    12     1
    1    14     1
    2     4     1
    2     3     1
    4     5     1
    4     6     1
    6     7     1
    6    11     1
    7     8     1
    8     9     1
    9    10     1
   10    11     1
   11    12     1
   12    13     1
   14    18     1
   15    16     1
   16    18     1
   16    17     1
    3    19     1
    7    20     1
    8    21     1
    9    22     1
   10    23     1
   14    24     1
   14    25     1
   15    26     1
   15    27     1
   15    28     1
   17    29     1
   17    30     1
   17    31     1
   18    32     1

[ pairs ]
;  ai    aj funct            c0            c1            c2            c3
    1     5     1
    1     6     1
    1    10     1
    1    16     1
    1    19     1
    1    32     1
    2     7     1
    2    11     1
    2    13     1
    2    18     1
    2    24     1
    2    25     1
    3     5     1
    3     6     1
    3    12     1
    3    14     1
    4     8     1
    4    10     1
    4    12     1
    4    14     1
    4    19     1
    4    20     1
    5     7     1
    5    11     1
    6     9     1
    6    13     1
    6    21     1
    6    23     1
    7    10     1
    7    12     1
    7    22     1
    8    11     1
    8    23     1
    9    12     1
    9    20     1
   10    13     1
   10    21     1
   11    14     1
   11    20     1
   11    22     1
   12    18     1
   12    23     1
   12    24     1
   12    25     1
   13    14     1
   14    15     1
   14    17     1
   15    29     1
   15    30     1
   15    31     1
   15    32     1
   16    24     1
   16    25     1
   17    26     1
   17    27     1
   17    28     1
   17    32     1
   18    26     1
   18    27     1
   18    28     1
   18    29     1
   18    30     1
   18    31     1
   20    21     1
   21    22     1
   22    23     1
   24    32     1
   25    32     1

[ angles ]
;  ai    aj    ak funct            c0            c1            c2            c3
    2     1    12     5
    2     1    14     5
   12     1    14     5
    1     2     4     5
    1     2     3     5
    4     2     3     5
    2     3    19     5
    2     4     5     5
    2     4     6     5
    5     4     6     5
    4     6     7     5
    4     6    11     5
    7     6    11     5
    6     7     8     5
    6     7    20     5
    8     7    20     5
    7     8     9     5
    7     8    21     5
    9     8    21     5
    8     9    10     5
    8     9    22     5
   10     9    22     5
    9    10    11     5
    9    10    23     5
   11    10    23     5
    6    11    10     5
    6    11    12     5
   10    11    12     5
    1    12    11     5
    1    12    13     5
   11    12    13     5
    1    14    18     5
    1    14    24     5
    1    14    25     5
   18    14    24     5
   18    14    25     5
   24    14    25     5
   16    15    26     5
   16    15    27     5
   16    15    28     5
   26    15    27     5
   26    15    28     5
   27    15    28     5
   15    16    18     5
   15    16    17     5
   18    16    17     5
   16    17    29     5
   16    17    30     5
   16    17    31     5
   29    17    30     5
   29    17    31     5
   30    17    31     5
   14    18    16     5
   14    18    32     5
   16    18    32     5

[ dihedrals ]
;  ai    aj    ak    al funct            c0            c1            c2            c3            c4            c5
   12     1     2     4     9
   12     1     2     3     9
   14     1     2     4     9
   14     1     2     3     9
    2     1    12    11     9
    2     1    12    13     9
   14     1    12    11     9
   14     1    12    13     9
    2     1    14    18     9
    2     1    14    24     9
    2     1    14    25     9
   12     1    14    18     9
   12     1    14    24     9
   12     1    14    25     9
    1     2     4     5     9
    1     2     4     6     9
    3     2     4     5     9
    3     2     4     6     9
    1     2     3    19     9
    4     2     3    19     9
    2     4     6     7     9
    2     4     6    11     9
    5     4     6     7     9
    5     4     6    11     9
    4     6     7     8     9
    4     6     7    20     9
   11     6     7     8     9
   11     6     7    20     9
    4     6    11    10     9
    4     6    11    12     9
    7     6    11    10     9
    7     6    11    12     9
    6     7     8     9     9
    6     7     8    21     9
   20     7     8     9     9
   20     7     8    21     9
    7     8     9    10     9
    7     8     9    22     9
   21     8     9    10     9
   21     8     9    22     9
    8     9    10    11     9
    8     9    10    23     9
   22     9    10    11     9
   22     9    10    23     9
    9    10    11     6     9
    9    10    11    12     9
   23    10    11     6     9
   23    10    11    12     9
    6    11    12     1     9
    6    11    12    13     9
   10    11    12     1     9
   10    11    12    13     9
    1    14    18    16     9
    1    14    18    32     9
   24    14    18    16     9
   24    14    18    32     9
   25    14    18    16     9
   25    14    18    32     9
   26    15    16    18     9
   26    15    16    17     9
   27    15    16    18     9
   27    15    16    17     9
   28    15    16    18     9
   28    15    16    17     9
   15    16    18    14     9
   15    16    18    32     9
   17    16    18    14     9
   17    16    18    32     9
   15    16    17    29     9
   15    16    17    30     9
   15    16    17    31     9
   18    16    17    29     9
   18    16    17    30     9
   18    16    17    31     9

[ dihedrals ]
;  ai    aj    ak    al funct            c0            c1            c2            c3            c4            c5
    4     2     6     5     2
   12     1    11    13     2



; Include Position restraint file
#ifdef POSRES
#include "posre.itp"
#endif

; Include water topology
#include "./charmm36.ff/tip3p.itp"

#ifdef POSRES_WATER
; Position restraint for each water oxygen
[ position_restraints ]
;  i funct       fcx        fcy        fcz
   1    1       1000       1000       1000
#endif

; Include topology for ions
#include "./charmm36.ff/ions.itp"

[ system ]
; Name
    Ligand

[ molecules ]
; Compound        #mols
LIG             1
