;;
;; Generated by CHARMM-GUI FF-Converter
;;
;; Correspondance:
;; jul316@lehigh.edu or wonpil@lehigh.edu
;;
;; GROMACS topology file for FAD
;;


[ moleculetype ]
; name	nrexcl
FAD	     3

[ atoms ]
; nr	type	resnr	residu	atom	cgnr	charge	mass
     1        PG0    601      FAD     P1      1     1.612000    30.9738   ; qtot  1.612
     2      OG2P1    601      FAD     O1      2    -0.620000    15.9994   ; qtot  0.992
     3      OG311    601      FAD     O2      3    -0.599000    15.9994   ; qtot  0.393
     4      OG303    601      FAD     O3      4    -0.633000    15.9994   ; qtot -0.240
     5      CG321    601      FAD     C1      5    -0.064000    12.0110   ; qtot -0.304
     6     CG3C51    601      FAD     C2      6     0.174000    12.0110   ; qtot -0.130
     7     OG3C51    601      FAD     O4      7    -0.463000    15.9994   ; qtot -0.593
     8     CG3C51    601      FAD     C3      8     0.143000    12.0110   ; qtot -0.450
     9      OG311    601      FAD     O5      9    -0.648000    15.9994   ; qtot -1.098
    10     CG3C51    601      FAD     C4     10     0.144000    12.0110   ; qtot -0.954
    11      OG311    601      FAD     O6     11    -0.648000    15.9994   ; qtot -1.602
    12     CG3C51    601      FAD     C5     12     0.142000    12.0110   ; qtot -1.460
    13     NG2R51    601      FAD     N1     13    -0.048000    14.0070   ; qtot -1.508
    14     CG2R53    601      FAD     C6     14     0.333000    12.0110   ; qtot -1.175
    15     NG2R50    601      FAD     N2     15    -0.717000    14.0070   ; qtot -1.892
    16     CG2RC0    601      FAD     C7     16     0.282000    12.0110   ; qtot -1.610
    17     CG2R64    601      FAD     C8     17     0.462000    12.0110   ; qtot -1.148
    18      NG2S3    601      FAD     N3     18    -0.789000    14.0070   ; qtot -1.937
    19     NG2R62    601      FAD     N4     19    -0.738000    14.0070   ; qtot -2.675
    20     CG2R64    601      FAD     C9     20     0.498000    12.0110   ; qtot -2.177
    21     NG2R62    601      FAD     N5     21    -0.747000    14.0070   ; qtot -2.924
    22     CG2RC0    601      FAD    C10     22     0.428000    12.0110   ; qtot -2.496
    23      NG2D1    601      FAD     N6     23    -0.599000    14.0070   ; qtot -3.095
    24      CG2O6    601      FAD    C11     24     0.695000    12.0110   ; qtot -2.400
    25      OG2D1    601      FAD     O7     25    -0.506000    15.9994   ; qtot -2.906
    26      NG2S1    601      FAD     N7     26    -0.509000    14.0070   ; qtot -3.415
    27      CG2O1    601      FAD    C12     27     0.342000    12.0110   ; qtot -3.073
    28      OG2D1    601      FAD     O8     28    -0.420000    15.9994   ; qtot -3.493
    29     CG2R61    601      FAD    C13     29     0.340000    12.0110   ; qtot -3.153
    30     NG2R60    601      FAD     N8     30    -0.502000    14.0070   ; qtot -3.655
    31     CG2R61    601      FAD    C14     31     0.207000    12.0110   ; qtot -3.448
    32     CG2R61    601      FAD    C15     32    -0.141000    12.0110   ; qtot -3.589
    33     CG2R61    601      FAD    C16     33     0.035000    12.0110   ; qtot -3.554
    34      CG331    601      FAD    C17     34    -0.266000    12.0110   ; qtot -3.820
    35     CG2R61    601      FAD    C18     35     0.033000    12.0110   ; qtot -3.787
    36      CG331    601      FAD    C19     36    -0.266000    12.0110   ; qtot -4.053
    37     CG2R61    601      FAD    C20     37    -0.191000    12.0110   ; qtot -4.244
    38     CG2R61    601      FAD    C21     38     0.282000    12.0110   ; qtot -3.962
    39     NG2R61    601      FAD     N9     39    -0.388000    14.0070   ; qtot -4.350
    40     CG2R64    601      FAD    C22     40     0.505000    12.0110   ; qtot -3.845
    41      CG321    601      FAD    C23     41     0.057000    12.0110   ; qtot -3.788
    42      CG311    601      FAD    C24     42     0.138000    12.0110   ; qtot -3.650
    43      OG311    601      FAD     O9     43    -0.648000    15.9994   ; qtot -4.298
    44      CG311    601      FAD    C25     44     0.142000    12.0110   ; qtot -4.156
    45      OG311    601      FAD    O10     45    -0.646000    15.9994   ; qtot -4.802
    46      CG311    601      FAD    C26     46     0.136000    12.0110   ; qtot -4.666
    47      OG311    601      FAD    O11     47    -0.648000    15.9994   ; qtot -5.314
    48      CG321    601      FAD    C27     48    -0.026000    12.0110   ; qtot -5.340
    49      OG303    601      FAD    O12     49    -0.634000    15.9994   ; qtot -5.974
    50        PG0    601      FAD     P2     50     1.608000    30.9738   ; qtot -4.366
    51      OG2P1    601      FAD    O13     51    -0.620000    15.9994   ; qtot -4.986
    52      OG311    601      FAD    O14     52    -0.599000    15.9994   ; qtot -5.585
    53      OG304    601      FAD    O15     53    -0.660000    15.9994   ; qtot -6.245
    54       HGP1    601      FAD     H1     54     0.420000     1.0080   ; qtot -5.825
    55       HGA2    601      FAD     H2     55     0.090000     1.0080   ; qtot -5.735
    56       HGA2    601      FAD     H3     56     0.090000     1.0080   ; qtot -5.645
    57       HGA1    601      FAD     H4     57     0.090000     1.0080   ; qtot -5.555
    58       HGA1    601      FAD     H5     58     0.090000     1.0080   ; qtot -5.465
    59       HGP1    601      FAD     H6     59     0.419000     1.0080   ; qtot -5.046
    60       HGA1    601      FAD     H7     60     0.090000     1.0080   ; qtot -4.956
    61       HGP1    601      FAD     H8     61     0.419000     1.0080   ; qtot -4.537
    62       HGA1    601      FAD     H9     62     0.090000     1.0080   ; qtot -4.447
    63      HGR52    601      FAD    H10     63     0.143000     1.0080   ; qtot -4.304
    64       HGP4    601      FAD    H11     64     0.379000     1.0080   ; qtot -3.925
    65       HGP4    601      FAD    H12     65     0.379000     1.0080   ; qtot -3.546
    66      HGR62    601      FAD    H13     66     0.127000     1.0080   ; qtot -3.419
    67       HGP1    601      FAD    H14     67     0.333000     1.0080   ; qtot -3.086
    68      HGR61    601      FAD    H15     68     0.116000     1.0080   ; qtot -2.970
    69       HGA3    601      FAD    H16     69     0.090000     1.0080   ; qtot -2.880
    70       HGA3    601      FAD    H17     70     0.090000     1.0080   ; qtot -2.790
    71       HGA3    601      FAD    H18     71     0.090000     1.0080   ; qtot -2.700
    72       HGA3    601      FAD    H19     72     0.090000     1.0080   ; qtot -2.610
    73       HGA3    601      FAD    H20     73     0.090000     1.0080   ; qtot -2.520
    74       HGA3    601      FAD    H21     74     0.090000     1.0080   ; qtot -2.430
    75      HGR61    601      FAD    H22     75     0.116000     1.0080   ; qtot -2.314
    76       HGA2    601      FAD    H23     76     0.090000     1.0080   ; qtot -2.224
    77       HGA2    601      FAD    H24     77     0.090000     1.0080   ; qtot -2.134
    78       HGA1    601      FAD    H25     78     0.090000     1.0080   ; qtot -2.044
    79       HGP1    601      FAD    H26     79     0.421000     1.0080   ; qtot -1.623
    80       HGA1    601      FAD    H27     80     0.090000     1.0080   ; qtot -1.533
    81       HGP1    601      FAD    H28     81     0.422000     1.0080   ; qtot -1.111
    82       HGA1    601      FAD    H29     82     0.090000     1.0080   ; qtot -1.021
    83       HGP1    601      FAD    H30     83     0.421000     1.0080   ; qtot -0.600
    84       HGA2    601      FAD    H31     84     0.090000     1.0080   ; qtot -0.510
    85       HGA2    601      FAD    H32     85     0.090000     1.0080   ; qtot -0.420
    86       HGP1    601      FAD    H33     86     0.420000     1.0080   ; qtot -0.000

[ bonds ]
; ai	aj	funct	b0	Kb
    1     2     1
    1     3     1
    1     4     1
    1    53     1
    3    54     1
    4     5     1
    5     6     1
    5    55     1
    5    56     1
    6     7     1
    6     8     1
    6    57     1
    7    12     1
    8     9     1
    8    10     1
    8    58     1
    9    59     1
   10    11     1
   10    12     1
   10    60     1
   11    61     1
   12    13     1
   12    62     1
   13    14     1
   13    22     1
   14    15     1
   14    63     1
   15    16     1
   16    17     1
   16    22     1
   17    18     1
   17    19     1
   18    64     1
   18    65     1
   19    20     1
   20    21     1
   20    66     1
   21    22     1
   23    24     1
   23    40     1
   24    25     1
   24    26     1
   26    27     1
   26    67     1
   27    28     1
   27    29     1
   29    30     1
   29    40     1
   30    31     1
   31    32     1
   31    38     1
   32    33     1
   32    68     1
   33    34     1
   33    35     1
   34    69     1
   34    70     1
   34    71     1
   35    36     1
   35    37     1
   36    72     1
   36    73     1
   36    74     1
   37    38     1
   37    75     1
   38    39     1
   39    40     1
   39    41     1
   41    42     1
   41    76     1
   41    77     1
   42    43     1
   42    44     1
   42    78     1
   43    79     1
   44    45     1
   44    46     1
   44    80     1
   45    81     1
   46    47     1
   46    48     1
   46    82     1
   47    83     1
   48    49     1
   48    84     1
   48    85     1
   49    50     1
   50    51     1
   50    52     1
   50    53     1
   52    86     1

[ pairs ]
; ai	aj	funct	c6	c12 or
; ai	aj	funct	fudgeQQ	q1	q2	c6	c12
    1     6     1
    1    49     1
    1    51     1
    1    52     1
    1    55     1
    1    56     1
    2     5     1
    2    50     1
    2    54     1
    3     5     1
    3    50     1
    4     7     1
    4     8     1
    4    50     1
    4    54     1
    4    57     1
    5     9     1
    5    10     1
    5    12     1
    5    53     1
    5    58     1
    6    11     1
    6    13     1
    6    59     1
    6    60     1
    6    62     1
    7     9     1
    7    11     1
    7    14     1
    7    22     1
    7    55     1
    7    56     1
    7    58     1
    7    60     1
    8    13     1
    8    55     1
    8    56     1
    8    61     1
    8    62     1
    9    11     1
    9    12     1
    9    57     1
    9    60     1
   10    14     1
   10    22     1
   10    57     1
   10    59     1
   11    13     1
   11    58     1
   11    62     1
   12    15     1
   12    16     1
   12    21     1
   12    57     1
   12    58     1
   12    61     1
   12    63     1
   13    17     1
   13    20     1
   13    60     1
   14    17     1
   14    21     1
   14    62     1
   15    18     1
   15    19     1
   15    21     1
   16    20     1
   16    63     1
   16    64     1
   16    65     1
   17    21     1
   17    66     1
   18    20     1
   18    22     1
   19    22     1
   19    64     1
   19    65     1
   22    62     1
   22    63     1
   22    66     1
   23    27     1
   23    30     1
   23    38     1
   23    41     1
   23    67     1
   24    28     1
   24    29     1
   24    39     1
   25    27     1
   25    40     1
   25    67     1
   26    30     1
   26    40     1
   27    31     1
   27    39     1
   28    30     1
   28    40     1
   28    67     1
   29    32     1
   29    38     1
   29    41     1
   29    67     1
   30    33     1
   30    37     1
   30    39     1
   30    68     1
   31    34     1
   31    35     1
   31    40     1
   31    41     1
   31    75     1
   32    36     1
   32    37     1
   32    39     1
   32    69     1
   32    70     1
   32    71     1
   33    38     1
   33    72     1
   33    73     1
   33    74     1
   33    75     1
   34    36     1
   34    37     1
   34    68     1
   35    39     1
   35    68     1
   35    69     1
   35    70     1
   35    71     1
   36    38     1
   36    75     1
   37    40     1
   37    41     1
   37    72     1
   37    73     1
   37    74     1
   38    42     1
   38    68     1
   38    76     1
   38    77     1
   39    43     1
   39    44     1
   39    75     1
   39    78     1
   40    42     1
   40    76     1
   40    77     1
   41    45     1
   41    46     1
   41    79     1
   41    80     1
   42    47     1
   42    48     1
   42    81     1
   42    82     1
   43    45     1
   43    46     1
   43    76     1
   43    77     1
   43    80     1
   44    49     1
   44    76     1
   44    77     1
   44    79     1
   44    83     1
   44    84     1
   44    85     1
   45    47     1
   45    48     1
   45    78     1
   45    82     1
   46    50     1
   46    78     1
   46    81     1
   47    49     1
   47    80     1
   47    84     1
   47    85     1
   48    51     1
   48    52     1
   48    53     1
   48    80     1
   48    83     1
   49    82     1
   49    86     1
   50    84     1
   50    85     1
   51    86     1
   53    54     1
   53    86     1
   55    57     1
   56    57     1
   57    58     1
   58    59     1
   58    60     1
   60    61     1
   60    62     1
   76    78     1
   77    78     1
   78    79     1
   78    80     1
   80    81     1
   80    82     1
   82    83     1
   82    84     1
   82    85     1

[ angles ] 
; ai	aj	ak	funct	th0	cth	S0	Kub
    2     1     3     5
    2     1     4     5
    2     1    53     5
    3     1     4     5
    3     1    53     5
    4     1    53     5
    1     3    54     5
    1     4     5     5
    4     5     6     5
    4     5    55     5
    4     5    56     5
    6     5    55     5
    6     5    56     5
   55     5    56     5
    5     6     7     5
    5     6     8     5
    5     6    57     5
    7     6     8     5
    7     6    57     5
    8     6    57     5
    6     7    12     5
    6     8     9     5
    6     8    10     5
    6     8    58     5
    9     8    10     5
    9     8    58     5
   10     8    58     5
    8     9    59     5
    8    10    11     5
    8    10    12     5
    8    10    60     5
   11    10    12     5
   11    10    60     5
   12    10    60     5
   10    11    61     5
    7    12    10     5
    7    12    13     5
    7    12    62     5
   10    12    13     5
   10    12    62     5
   13    12    62     5
   12    13    14     5
   12    13    22     5
   14    13    22     5
   13    14    15     5
   13    14    63     5
   15    14    63     5
   14    15    16     5
   15    16    17     5
   15    16    22     5
   17    16    22     5
   16    17    18     5
   16    17    19     5
   18    17    19     5
   17    18    64     5
   17    18    65     5
   64    18    65     5
   17    19    20     5
   19    20    21     5
   19    20    66     5
   21    20    66     5
   20    21    22     5
   13    22    16     5
   13    22    21     5
   16    22    21     5
   24    23    40     5
   23    24    25     5
   23    24    26     5
   25    24    26     5
   24    26    27     5
   24    26    67     5
   27    26    67     5
   26    27    28     5
   26    27    29     5
   28    27    29     5
   27    29    30     5
   27    29    40     5
   30    29    40     5
   29    30    31     5
   30    31    32     5
   30    31    38     5
   32    31    38     5
   31    32    33     5
   31    32    68     5
   33    32    68     5
   32    33    34     5
   32    33    35     5
   34    33    35     5
   33    34    69     5
   33    34    70     5
   33    34    71     5
   69    34    70     5
   69    34    71     5
   70    34    71     5
   33    35    36     5
   33    35    37     5
   36    35    37     5
   35    36    72     5
   35    36    73     5
   35    36    74     5
   72    36    73     5
   72    36    74     5
   73    36    74     5
   35    37    38     5
   35    37    75     5
   38    37    75     5
   31    38    37     5
   31    38    39     5
   37    38    39     5
   38    39    40     5
   38    39    41     5
   40    39    41     5
   23    40    29     5
   23    40    39     5
   29    40    39     5
   39    41    42     5
   39    41    76     5
   39    41    77     5
   42    41    76     5
   42    41    77     5
   76    41    77     5
   41    42    43     5
   41    42    44     5
   41    42    78     5
   43    42    44     5
   43    42    78     5
   44    42    78     5
   42    43    79     5
   42    44    45     5
   42    44    46     5
   42    44    80     5
   45    44    46     5
   45    44    80     5
   46    44    80     5
   44    45    81     5
   44    46    47     5
   44    46    48     5
   44    46    82     5
   47    46    48     5
   47    46    82     5
   48    46    82     5
   46    47    83     5
   46    48    49     5
   46    48    84     5
   46    48    85     5
   49    48    84     5
   49    48    85     5
   84    48    85     5
   48    49    50     5
   49    50    51     5
   49    50    52     5
   49    50    53     5
   51    50    52     5
   51    50    53     5
   52    50    53     5
   50    52    86     5
    1    53    50     5

[ dihedrals ]
; ai	aj	ak	al	funct	phi0	cp	mult
    2     1     3    54     9
    4     1     3    54     9
   53     1     3    54     9
    2     1     4     5     9
    3     1     4     5     9
    2     1    53    50     9
    3     1    53    50     9
    4     1    53    50     9
    5     4     1    53     9
    1     4     5     6     9
    1     4     5    55     9
    1     4     5    56     9
    4     5     6     7     9
    4     5     6     8     9
    4     5     6    57     9
   55     5     6    57     9
   56     5     6    57     9
    7     6     5    55     9
    7     6     5    56     9
    8     6     5    55     9
    8     6     5    56     9
    5     6     7    12     9
    8     6     7    12     9
    5     6     8     9     9
    5     6     8    10     9
    5     6     8    58     9
    7     6     8     9     9
    7     6     8    10     9
    7     6     8    58     9
   57     6     8    58     9
   12     7     6    57     9
    6     7    12    10     9
    6     7    12    13     9
    6     7    12    62     9
    9     8     6    57     9
   10     8     6    57     9
    6     8     9    59     9
   10     8     9    59     9
   58     8     9    59     9
    6     8    10    11     9
    6     8    10    12     9
    6     8    10    60     9
    9     8    10    11     9
    9     8    10    12     9
    9     8    10    60     9
   58     8    10    60     9
   11    10     8    58     9
   12    10     8    58     9
    8    10    11    61     9
   12    10    11    61     9
   60    10    11    61     9
    8    10    12    13     9
    8    10    12    62     9
   11    10    12    13     9
   11    10    12    62     9
   60    10    12    62     9
    7    12    10     8     9
    7    12    10    11     9
    7    12    10    60     9
   13    12    10    60     9
    7    12    13    14     9
    7    12    13    22     9
   10    12    13    14     9
   10    12    13    22     9
   14    13    12    62     9
   22    13    12    62     9
   12    13    14    15     9
   12    13    14    63     9
   22    13    14    63     9
   12    13    22    16     9
   12    13    22    21     9
   14    13    22    16     9
   14    13    22    21     9
   15    14    13    22     9
   13    14    15    16     9
   16    15    14    63     9
   14    15    16    17     9
   14    15    16    22     9
   15    16    17    18     9
   15    16    17    19     9
   15    16    22    21     9
   17    16    22    21     9
   18    17    16    22     9
   19    17    16    22     9
   16    17    18    64     9
   16    17    18    65     9
   19    17    18    64     9
   19    17    18    65     9
   16    17    19    20     9
   18    17    19    20     9
   17    19    20    21     9
   17    19    20    66     9
   19    20    21    22     9
   22    21    20    66     9
   13    22    16    15     9
   13    22    16    17     9
   13    22    21    20     9
   16    22    21    20     9
   24    23    40    29     9
   24    23    40    39     9
   25    24    23    40     9
   26    24    23    40     9
   23    24    26    27     9
   23    24    26    67     9
   25    24    26    27     9
   25    24    26    67     9
   24    26    27    28     9
   24    26    27    29     9
   28    27    26    67     9
   29    27    26    67     9
   26    27    29    30     9
   26    27    29    40     9
   28    27    29    30     9
   28    27    29    40     9
   27    29    30    31     9
   27    29    40    39     9
   30    29    40    39     9
   31    30    29    40     9
   29    30    31    32     9
   29    30    31    38     9
   30    31    32    33     9
   30    31    32    68     9
   38    31    32    68     9
   30    31    38    37     9
   30    31    38    39     9
   32    31    38    37     9
   32    31    38    39     9
   33    32    31    38     9
   31    32    33    34     9
   31    32    33    35     9
   34    33    32    68     9
   35    33    32    68     9
   32    33    34    69     9
   32    33    34    70     9
   32    33    34    71     9
   35    33    34    69     9
   35    33    34    70     9
   35    33    34    71     9
   32    33    35    36     9
   32    33    35    37     9
   34    33    35    36     9
   34    33    35    37     9
   33    35    36    72     9
   33    35    36    73     9
   33    35    36    74     9
   37    35    36    72     9
   37    35    36    73     9
   37    35    36    74     9
   33    35    37    38     9
   33    35    37    75     9
   36    35    37    38     9
   36    35    37    75     9
   35    37    38    39     9
   31    38    37    35     9
   31    38    37    75     9
   39    38    37    75     9
   31    38    39    40     9
   31    38    39    41     9
   37    38    39    40     9
   37    38    39    41     9
   38    39    41    42     9
   38    39    41    76     9
   38    39    41    77     9
   40    39    41    42     9
   40    39    41    76     9
   40    39    41    77     9
   23    40    29    27     9
   23    40    29    30     9
   23    40    39    38     9
   23    40    39    41     9
   29    40    39    38     9
   29    40    39    41     9
   39    41    42    43     9
   39    41    42    44     9
   39    41    42    78     9
   76    41    42    78     9
   77    41    42    78     9
   43    42    41    76     9
   43    42    41    77     9
   44    42    41    76     9
   44    42    41    77     9
   41    42    43    79     9
   44    42    43    79     9
   78    42    43    79     9
   41    42    44    45     9
   41    42    44    46     9
   41    42    44    80     9
   43    42    44    45     9
   43    42    44    46     9
   43    42    44    80     9
   78    42    44    80     9
   45    44    42    78     9
   46    44    42    78     9
   42    44    45    81     9
   46    44    45    81     9
   80    44    45    81     9
   42    44    46    47     9
   42    44    46    48     9
   42    44    46    82     9
   45    44    46    47     9
   45    44    46    48     9
   45    44    46    82     9
   80    44    46    82     9
   47    46    44    80     9
   48    46    44    80     9
   44    46    47    83     9
   48    46    47    83     9
   82    46    47    83     9
   44    46    48    49     9
   44    46    48    84     9
   44    46    48    85     9
   47    46    48    49     9
   47    46    48    84     9
   47    46    48    85     9
   82    46    48    84     9
   82    46    48    85     9
   49    48    46    82     9
   46    48    49    50     9
   50    49    48    84     9
   50    49    48    85     9
   48    49    50    51     9
   48    49    50    52     9
   48    49    50    53     9
   49    50    52    86     9
   51    50    52    86     9
   53    50    52    86     9
    1    53    50    49     9
    1    53    50    51     9
    1    53    50    52     9

[ dihedrals ]
; ai	aj	ak	al	funct	q0	cq
   17    16    19    18     2
   18    65    64    17     2
   24    23    26    25     2
   27    29    26    28     2

#ifdef POSRES
[ position_restraints ]
    1     1    POSRES_FC_BB    POSRES_FC_BB    POSRES_FC_BB   
    2     1    POSRES_FC_BB    POSRES_FC_BB    POSRES_FC_BB   
    3     1    POSRES_FC_BB    POSRES_FC_BB    POSRES_FC_BB   
    4     1    POSRES_FC_BB    POSRES_FC_BB    POSRES_FC_BB   
    5     1    POSRES_FC_BB    POSRES_FC_BB    POSRES_FC_BB   
    6     1    POSRES_FC_BB    POSRES_FC_BB    POSRES_FC_BB   
    7     1    POSRES_FC_BB    POSRES_FC_BB    POSRES_FC_BB   
    8     1    POSRES_FC_BB    POSRES_FC_BB    POSRES_FC_BB   
    9     1    POSRES_FC_BB    POSRES_FC_BB    POSRES_FC_BB   
   10     1    POSRES_FC_BB    POSRES_FC_BB    POSRES_FC_BB   
   11     1    POSRES_FC_BB    POSRES_FC_BB    POSRES_FC_BB   
   12     1    POSRES_FC_BB    POSRES_FC_BB    POSRES_FC_BB   
   13     1    POSRES_FC_BB    POSRES_FC_BB    POSRES_FC_BB   
   14     1    POSRES_FC_BB    POSRES_FC_BB    POSRES_FC_BB   
   15     1    POSRES_FC_BB    POSRES_FC_BB    POSRES_FC_BB   
   16     1    POSRES_FC_BB    POSRES_FC_BB    POSRES_FC_BB   
   17     1    POSRES_FC_BB    POSRES_FC_BB    POSRES_FC_BB   
   18     1    POSRES_FC_BB    POSRES_FC_BB    POSRES_FC_BB   
   19     1    POSRES_FC_BB    POSRES_FC_BB    POSRES_FC_BB   
   20     1    POSRES_FC_BB    POSRES_FC_BB    POSRES_FC_BB   
   21     1    POSRES_FC_BB    POSRES_FC_BB    POSRES_FC_BB   
   22     1    POSRES_FC_BB    POSRES_FC_BB    POSRES_FC_BB   
   23     1    POSRES_FC_BB    POSRES_FC_BB    POSRES_FC_BB   
   24     1    POSRES_FC_BB    POSRES_FC_BB    POSRES_FC_BB   
   25     1    POSRES_FC_BB    POSRES_FC_BB    POSRES_FC_BB   
   26     1    POSRES_FC_BB    POSRES_FC_BB    POSRES_FC_BB   
   27     1    POSRES_FC_BB    POSRES_FC_BB    POSRES_FC_BB   
   28     1    POSRES_FC_BB    POSRES_FC_BB    POSRES_FC_BB   
   29     1    POSRES_FC_BB    POSRES_FC_BB    POSRES_FC_BB   
   30     1    POSRES_FC_BB    POSRES_FC_BB    POSRES_FC_BB   
   31     1    POSRES_FC_BB    POSRES_FC_BB    POSRES_FC_BB   
   32     1    POSRES_FC_BB    POSRES_FC_BB    POSRES_FC_BB   
   33     1    POSRES_FC_BB    POSRES_FC_BB    POSRES_FC_BB   
   34     1    POSRES_FC_BB    POSRES_FC_BB    POSRES_FC_BB   
   35     1    POSRES_FC_BB    POSRES_FC_BB    POSRES_FC_BB   
   36     1    POSRES_FC_BB    POSRES_FC_BB    POSRES_FC_BB   
   37     1    POSRES_FC_BB    POSRES_FC_BB    POSRES_FC_BB   
   38     1    POSRES_FC_BB    POSRES_FC_BB    POSRES_FC_BB   
   39     1    POSRES_FC_BB    POSRES_FC_BB    POSRES_FC_BB   
   40     1    POSRES_FC_BB    POSRES_FC_BB    POSRES_FC_BB   
   41     1    POSRES_FC_BB    POSRES_FC_BB    POSRES_FC_BB   
   42     1    POSRES_FC_BB    POSRES_FC_BB    POSRES_FC_BB   
   43     1    POSRES_FC_BB    POSRES_FC_BB    POSRES_FC_BB   
   44     1    POSRES_FC_BB    POSRES_FC_BB    POSRES_FC_BB   
   45     1    POSRES_FC_BB    POSRES_FC_BB    POSRES_FC_BB   
   46     1    POSRES_FC_BB    POSRES_FC_BB    POSRES_FC_BB   
   47     1    POSRES_FC_BB    POSRES_FC_BB    POSRES_FC_BB   
   48     1    POSRES_FC_BB    POSRES_FC_BB    POSRES_FC_BB   
   49     1    POSRES_FC_BB    POSRES_FC_BB    POSRES_FC_BB   
   50     1    POSRES_FC_BB    POSRES_FC_BB    POSRES_FC_BB   
   51     1    POSRES_FC_BB    POSRES_FC_BB    POSRES_FC_BB   
   52     1    POSRES_FC_BB    POSRES_FC_BB    POSRES_FC_BB   
   53     1    POSRES_FC_BB    POSRES_FC_BB    POSRES_FC_BB   
#endif
