;;
;; Generated by CHARMM-GUI FF-Converter
;;
;; Correspondance:
;; jul316@lehigh.edu or wonpil@lehigh.edu
;;
;; GROMACS topology file for LIG
;;


[ moleculetype ]
; name	nrexcl
LIG	     3

[ atoms ]
; nr	type	resnr	residu	atom	cgnr	charge	mass
     1     CG2DC1      1      LIG     C1      1    -0.168000    12.0110   ; qtot -0.168
     2     CG2D1O      1      LIG     C2      2     0.202000    12.0110   ; qtot  0.034
     3      OG311      1      LIG     O1      3    -0.374000    15.9994   ; qtot -0.340
     4      CG2O5      1      LIG     C3      4     0.087000    12.0110   ; qtot -0.253
     5      OG2D3      1      LIG     O2      5    -0.387000    15.9994   ; qtot -0.640
     6     CG2R61      1      LIG     C4      6     0.269000    12.0110   ; qtot -0.371
     7     CG2R61      1      LIG     C5      7    -0.116000    12.0110   ; qtot -0.487
     8     CG2R61      1      LIG     C6      8    -0.111000    12.0110   ; qtot -0.598
     9     CG2R61      1      LIG     C7      9    -0.111000    12.0110   ; qtot -0.709
    10     CG2R61      1      LIG     C8     10    -0.116000    12.0110   ; qtot -0.825
    11     CG2R61      1      LIG     C9     11     0.204000    12.0110   ; qtot -0.621
    12      CG2O5      1      LIG    C10     12     0.340000    12.0110   ; qtot -0.281
    13      OG2D3      1      LIG     O3     13    -0.437000    15.9994   ; qtot -0.718
    14      CG321      1      LIG    C11     14    -0.224000    12.0110   ; qtot -0.942
    15      CG331      1      LIG    C12     15    -0.267000    12.0110   ; qtot -1.209
    16      CG2D1      1      LIG    C13     16     0.006000    12.0110   ; qtot -1.203
    17      CG331      1      LIG    C14     17    -0.267000    12.0110   ; qtot -1.470
    18      CG2D1      1      LIG    C15     18    -0.221000    12.0110   ; qtot -1.691
    19       HGP1      1      LIG     H1     19     0.357000     1.0080   ; qtot -1.334
    20      HGR61      1      LIG     H2     20     0.116000     1.0080   ; qtot -1.218
    21      HGR61      1      LIG     H3     21     0.116000     1.0080   ; qtot -1.102
    22      HGR61      1      LIG     H4     22     0.116000     1.0080   ; qtot -0.986
    23      HGR61      1      LIG     H5     23     0.116000     1.0080   ; qtot -0.870
    24       HGA2      1      LIG     H6     24     0.090000     1.0080   ; qtot -0.780
    25       HGA2      1      LIG     H7     25     0.090000     1.0080   ; qtot -0.690
    26       HGA3      1      LIG     H8     26     0.090000     1.0080   ; qtot -0.600
    27       HGA3      1      LIG     H9     27     0.090000     1.0080   ; qtot -0.510
    28       HGA3      1      LIG    H10     28     0.090000     1.0080   ; qtot -0.420
    29       HGA3      1      LIG    H11     29     0.090000     1.0080   ; qtot -0.330
    30       HGA3      1      LIG    H12     30     0.090000     1.0080   ; qtot -0.240
    31       HGA3      1      LIG    H13     31     0.090000     1.0080   ; qtot -0.150
    32       HGA4      1      LIG    H14     32     0.150000     1.0080   ; qtot -0.000

[ bonds ]
; ai	aj	funct	b0	Kb
    1     2     1
    1    12     1
    1    14     1
    2     3     1
    2     4     1
    3    19     1
    4     5     1
    4     6     1
    6     7     1
    6    11     1
    7     8     1
    7    20     1
    8     9     1
    8    21     1
    9    10     1
    9    22     1
   10    11     1
   10    23     1
   11    12     1
   12    13     1
   14    18     1
   14    24     1
   14    25     1
   15    16     1
   15    26     1
   15    27     1
   15    28     1
   16    17     1
   16    18     1
   17    29     1
   17    30     1
   17    31     1
   18    32     1

[ pairs ]
; ai	aj	funct	c6	c12 or
; ai	aj	funct	fudgeQQ	q1	q2	c6	c12
    1     5     1
    1     6     1
    1    10     1
    1    16     1
    1    19     1
    1    32     1
    2     7     1
    2    11     1
    2    13     1
    2    18     1
    2    24     1
    2    25     1
    3     5     1
    3     6     1
    3    12     1
    3    14     1
    4     8     1
    4    10     1
    4    12     1
    4    14     1
    4    19     1
    4    20     1
    5     7     1
    5    11     1
    6     9     1
    6    13     1
    6    21     1
    6    23     1
    7    10     1
    7    12     1
    7    22     1
    8    11     1
    8    23     1
    9    12     1
    9    20     1
   10    13     1
   10    21     1
   11    14     1
   11    20     1
   11    22     1
   12    18     1
   12    23     1
   12    24     1
   12    25     1
   13    14     1
   14    15     1
   14    17     1
   15    29     1
   15    30     1
   15    31     1
   15    32     1
   16    24     1
   16    25     1
   17    26     1
   17    27     1
   17    28     1
   17    32     1
   18    26     1
   18    27     1
   18    28     1
   18    29     1
   18    30     1
   18    31     1
   20    21     1
   21    22     1
   22    23     1
   24    32     1
   25    32     1

[ angles ] 
; ai	aj	ak	funct	th0	cth	S0	Kub
    2     1    12     5
    2     1    14     5
   12     1    14     5
    1     2     3     5
    1     2     4     5
    3     2     4     5
    2     3    19     5
    2     4     5     5
    2     4     6     5
    5     4     6     5
    4     6     7     5
    4     6    11     5
    7     6    11     5
    6     7     8     5
    6     7    20     5
    8     7    20     5
    7     8     9     5
    7     8    21     5
    9     8    21     5
    8     9    10     5
    8     9    22     5
   10     9    22     5
    9    10    11     5
    9    10    23     5
   11    10    23     5
    6    11    10     5
    6    11    12     5
   10    11    12     5
    1    12    11     5
    1    12    13     5
   11    12    13     5
    1    14    18     5
    1    14    24     5
    1    14    25     5
   18    14    24     5
   18    14    25     5
   24    14    25     5
   16    15    26     5
   16    15    27     5
   16    15    28     5
   26    15    27     5
   26    15    28     5
   27    15    28     5
   15    16    17     5
   15    16    18     5
   17    16    18     5
   16    17    29     5
   16    17    30     5
   16    17    31     5
   29    17    30     5
   29    17    31     5
   30    17    31     5
   14    18    16     5
   14    18    32     5
   16    18    32     5

[ dihedrals ]
; ai	aj	ak	al	funct	phi0	cp	mult
    2     1    12    11     9
    2     1    12    13     9
    2     1    14    18     9
    2     1    14    24     9
    2     1    14    25     9
   12     1    14    18     9
   12     1    14    24     9
   12     1    14    25     9
    3     2     1    12     9
    3     2     1    14     9
    4     2     1    12     9
    4     2     1    14     9
    1     2     3    19     9
    4     2     3    19     9
    1     2     4     5     9
    1     2     4     6     9
    3     2     4     5     9
    3     2     4     6     9
    2     4     6     7     9
    2     4     6    11     9
    5     4     6     7     9
    5     4     6    11     9
    4     6     7     8     9
    4     6     7    20     9
   11     6     7    20     9
    4     6    11    10     9
    4     6    11    12     9
    7     6    11    10     9
    7     6    11    12     9
    8     7     6    11     9
    6     7     8     9     9
    6     7     8    21     9
   20     7     8    21     9
    9     8     7    20     9
    7     8     9    10     9
    7     8     9    22     9
   21     8     9    22     9
   10     9     8    21     9
    8     9    10    11     9
    8     9    10    23     9
   22     9    10    23     9
   11    10     9    22     9
    9    10    11    12     9
    6    11    10     9     9
    6    11    10    23     9
   12    11    10    23     9
    6    11    12    13     9
   10    11    12    13     9
   11    12     1    14     9
   13    12     1    14     9
    1    12    11     6     9
    1    12    11    10     9
    1    14    18    16     9
    1    14    18    32     9
   24    14    18    32     9
   25    14    18    32     9
   17    16    15    26     9
   17    16    15    27     9
   17    16    15    28     9
   18    16    15    26     9
   18    16    15    27     9
   18    16    15    28     9
   15    16    17    29     9
   15    16    17    30     9
   15    16    17    31     9
   18    16    17    29     9
   18    16    17    30     9
   18    16    17    31     9
   15    16    18    32     9
   17    16    18    32     9
   16    18    14    24     9
   16    18    14    25     9
   14    18    16    15     9
   14    18    16    17     9

[ dihedrals ]
; ai	aj	ak	al	funct	q0	cq
    4     2     6     5     2
   12     1    11    13     2

#ifdef POSRES
[ position_restraints ]
    1     1    POSRES_FC_BB    POSRES_FC_BB    POSRES_FC_BB   
    2     1    POSRES_FC_BB    POSRES_FC_BB    POSRES_FC_BB   
    3     1    POSRES_FC_BB    POSRES_FC_BB    POSRES_FC_BB   
    4     1    POSRES_FC_BB    POSRES_FC_BB    POSRES_FC_BB   
    5     1    POSRES_FC_BB    POSRES_FC_BB    POSRES_FC_BB   
    6     1    POSRES_FC_BB    POSRES_FC_BB    POSRES_FC_BB   
    7     1    POSRES_FC_BB    POSRES_FC_BB    POSRES_FC_BB   
    8     1    POSRES_FC_BB    POSRES_FC_BB    POSRES_FC_BB   
    9     1    POSRES_FC_BB    POSRES_FC_BB    POSRES_FC_BB   
   10     1    POSRES_FC_BB    POSRES_FC_BB    POSRES_FC_BB   
   11     1    POSRES_FC_BB    POSRES_FC_BB    POSRES_FC_BB   
   12     1    POSRES_FC_BB    POSRES_FC_BB    POSRES_FC_BB   
   13     1    POSRES_FC_BB    POSRES_FC_BB    POSRES_FC_BB   
   14     1    POSRES_FC_BB    POSRES_FC_BB    POSRES_FC_BB   
   15     1    POSRES_FC_BB    POSRES_FC_BB    POSRES_FC_BB   
   16     1    POSRES_FC_BB    POSRES_FC_BB    POSRES_FC_BB   
   17     1    POSRES_FC_BB    POSRES_FC_BB    POSRES_FC_BB   
   18     1    POSRES_FC_BB    POSRES_FC_BB    POSRES_FC_BB   
#endif
